! Touchstone file exported from 2D Extractor 2022.2.0
!        File:           C:/Users/dkcdn/Desktop/Davit/rlcg2s python/Ansys verification/Project/diff_stripline.aedt
!        Generated:      4:34:08 PM  Oct 03, 2024
!        Design:         2DExtractorDesign1
!        Project:        diff_stripline
!        Setup:          Setup1
!        Solution:       Sweep2
!        Reduce Matrix:  Original
!
# GHz S MA R 50.000000
! Terminal data exported
! Port[1] = Negative_A
! Port[2] = Positive_A
! Port[3] = Negative_B
! Port[4] = Positive_B
0.04                           0.0075216676113344 -175.944334360169 0.0382319203117677 -13.3257241575387 0.960674976441156 -104.078643160841 0.00129791258818734 -40.6890794984754 
                               0.0382319203117677 -13.3257241575387 0.00745577902194618 -176.133312762934 0.0012979125881874 -40.6890794984871 0.960752750202661 -104.085009600241 
                               0.960674976441156 -104.078643160841 0.00129791258818734 -40.6890794984754 0.0075216676113344 -175.944334360169 0.0382319203117677 -13.3257241575387 
                               0.0012979125881874 -40.6890794984871 0.960752750202661 -104.085009600241 0.0382319203117677 -13.3257241575387 0.00745577902194618 -176.133312762934 
! Gamma         0                0                0                0                0                0                0                0                
! Port Impedance         50               0                50               0                50               0                50               0                
0.219520958083832              0.00224938331891868 -174.762149661134 0.0139301016729735 47.9828859087736 0.861899945297582 158.675796401437 0.00510913703837076 -119.624806384801 
                               0.0139301016729735 47.9828859087736 0.00222754138806367 -175.426352347088 0.00510913703837119 -119.6248063848  0.861892241207219 158.614368939334 
                               0.861899945297582 158.675796401437 0.00510913703837076 -119.624806384801 0.00224938331891868 -174.762149661134 0.0139301016729735 47.9828859087736 
                               0.00510913703837119 -119.6248063848  0.861892241207219 158.614368939334 0.0139301016729735 47.9828859087736 0.00222754138806367 -175.426352347088 
! Gamma         0                0                0                0                0                0                0                0                
! Port Impedance         50               0                50               0                50               0                50               0                
0.399041916167665              0.00468440737811717 88.0273247902006 0.0300940178696958 -18.5560449536626 0.781615122347142 64.9211105386611 0.00792003650561998 147.34369864918  
                               0.0300940178696958 -18.5560449536626 0.00464863280925317 87.1675446481172 0.00792003650561776 147.34369864918  0.781373197161888 64.822925515133  
                               0.781615122347142 64.9211105386611 0.00792003650561998 147.34369864918  0.00468440737811717 88.0273247902006 0.0300940178696958 -18.5560449536626 
                               0.00792003650561776 147.34369864918  0.781373197161888 64.822925515133  0.0300940178696958 -18.5560449536626 0.00464863280925317 87.1675446481172 
! Gamma         0                0                0                0                0                0                0                0                
! Port Impedance         50               0                50               0                50               0                50               0                
0.578562874251497              0.00273601236066404 130.238305870592 0.0168293181081319 30.26429101824   0.712174936999419 -27.313060453613 0.0103030322360834 54.708992577374  
                               0.0168293181081319 30.26429101824   0.00273061252957982 129.486698230779 0.0103030322360843 54.708992577374  0.711815864750042 -27.4401031527459 
                               0.712174936999419 -27.313060453613 0.0103030322360834 54.708992577374  0.00273601236066404 130.238305870592 0.0168293181081319 30.26429101824   
                               0.0103030322360843 54.708992577374  0.711815864750042 -27.4401031527459 0.0168293181081319 30.26429101824   0.00273061252957982 129.486698230779 
! Gamma         0                0                0                0                0                0                0                0                
! Port Impedance         50               0                50               0                50               0                50               0                
0.758083832335329              0.00476101653746755 64.2890102398214 0.0262475049848651 -15.904283649007 0.650004905533668 -118.483663260411 0.0119934295799088 -36.1905461817106 
                               0.0262475049848651 -15.904283649007 0.00475170187282864 63.5867245703541 0.0119934295799104 -36.1905461817118 0.649600057048204 -118.638125801869 
                               0.650004905533668 -118.483663260411 0.0119934295799088 -36.1905461817106 0.00476101653746755 64.2890102398214 0.0262475049848651 -15.904283649007 
                               0.0119934295799104 -36.1905461817118 0.649600057048204 -118.638125801869 0.0262475049848651 -15.904283649007 0.00475170187282864 63.5867245703541 
! Gamma         0                0                0                0                0                0                0                0                
! Port Impedance         50               0                50               0                50               0                50               0                
0.937604790419162              0.00318093051072542 101.097229764057 0.0177871255512818 20.1105287825328 0.594311595157895 151.080114274804 0.0133611059081061 -127.053418251119 
                               0.0177871255512818 20.1105287825327 0.00318926703402137 100.470917016192 0.0133611059081075 -127.053418251118 0.593896105292629 150.898228595987 
                               0.594311595157895 151.080114274804 0.0133611059081061 -127.053418251119 0.00318093051072542 101.097229764057 0.0177871255512818 20.1105287825328 
                               0.0133611059081075 -127.053418251118 0.593896105292629 150.898228595987 0.0177871255512818 20.1105287825327 0.00318926703402137 100.470917016192 
! Gamma         0                0                0                0                0                0                0                0                
! Port Impedance         50               0                50               0                50               0                50               0                
1.11712574850299               0.00504654457322668 55.4637175296619 0.0243265803826724 -11.9245013711773 0.543755373849354 61.2851684818119 0.0143083076497472 143.319464229162 
                               0.0243265803826724 -11.9245013711773 0.00504750741284734 54.8982428620841 0.0143083076497487 143.319464229163 0.543346315465469 61.0756387587535 
                               0.543755373849354 61.2851684818119 0.0143083076497472 143.319464229162 0.00504654457322668 55.4637175296619 0.0243265803826724 -11.9245013711773 
                               0.0143083076497487 143.319464229163 0.543346315465469 61.0756387587535 0.0243265803826724 -11.9245013711773 0.00504750741284734 54.8982428620841 
! Gamma         0                0                0                0                0                0                0                0                
! Port Impedance         50               0                50               0                50               0                50               0                
1.29664670658683               0.00359467354995341 82.4453232316109 0.018208120903206 13.3258507835232 0.49802143337531 -28.0195111361201 0.015019296246467 53.7567779922381 
                               0.018208120903206 13.3258507835231 0.00361105016591831 81.9579681694763 0.0150192962464708 53.7567779922387 0.497628162078635 -28.2568705940974 
                               0.49802143337531 -28.0195111361201 0.015019296246467 53.7567779922381 0.00359467354995341 82.4453232316109 0.018208120903206 13.3258507835232 
                               0.0150192962464708 53.7567779922387 0.497628162078635 -28.2568705940974 0.018208120903206 13.3258507835231 0.00361105016591831 81.9579681694763 
! Gamma         0                0                0                0                0                0                0                0                
! Port Impedance         50               0                50               0                50               0                50               0                
1.47616766467066               0.00535357002143473 51.7287695603354 0.0233169500607727 -8.27904456704421 0.456316988340043 -116.866507564582 0.0154585932275508 -34.9654932724711 
                               0.0233169500607727 -8.27904456704416 0.00536011505992171 51.2516955817433 0.0154585932275549 -34.96549327247  0.455944395860591 -117.131823184286 
                               0.456316988340043 -116.866507564582 0.0154585932275508 -34.9654932724711 0.00535357002143473 51.7287695603354 0.0233169500607727 -8.27904456704421 
                               0.0154585932275549 -34.96549327247  0.455944395860591 -117.131823184286 0.0233169500607727 -8.27904456704416 0.00536011505992171 51.2516955817433 
! Gamma         0                0                0                0                0                0                0                0                
! Port Impedance         50               0                50               0                50               0                50               0                
1.65568862275449               0.00399972433602046 69.5286164814326 0.0184956379215651 8.56998058392228 0.418424234271472 154.656598413742 0.01573393395207 -123.584487152467 
                               0.0184956379215651 8.5699805839223  0.00402016520401298 69.1544393135196 0.015733933952069 -123.584487152467 0.418075232081539 154.363230377127 
                               0.418424234271472 154.656598413742 0.01573393395207 -123.584487152467 0.00399972433602046 69.5286164814326 0.0184956379215651 8.56998058392228 
                               0.015733933952069 -123.584487152467 0.418075232081539 154.363230377127 0.0184956379215651 8.5699805839223  0.00402016520401298 69.1544393135196 
! Gamma         0                0                0                0                0                0                0                0                
! Port Impedance         50               0                50               0                50               0                50               0                
1.83520958083832               0.00563987141275312 49.8526795686279 0.0227142571447167 -5.36735601249718 0.38378891222754 66.5330659710986 0.0158255532132202 148.390123339783 
                               0.0227142571447167 -5.36735601249716 0.00565057817696161 49.4345929656863 0.0158255532132231 148.390123339783 0.383464797208563 66.2115811238494 
                               0.38378891222754 66.5330659710986 0.0158255532132202 148.390123339783 0.00563987141275312 49.8526795686279 0.0227142571447167 -5.36735601249718 
                               0.0158255532132231 148.390123339783 0.383464797208563 66.2115811238494 0.0227142571447167 -5.36735601249716 0.00565057817696161 49.4345929656863 
! Gamma         0                0                0                0                0                0                0                0                
! Port Impedance         50               0                50               0                50               0                50               0                
2.01473053892216               0.004407395880092 60.28738972782   0.0187751039981148 5.20618171055223 0.352234093816652 -21.2917494178952 0.0158081512839849 60.4947523711636 
                               0.0187751039981148 5.20618171055222 0.00442943279098146 59.9949954238673 0.0158081512839853 60.4947523711649 0.351935508666382 -21.6414148651777 
                               0.352234093816652 -21.2917494178952 0.0158081512839849 60.4947523711636 0.004407395880092 60.28738972782   0.0187751039981148 5.20618171055223 
                               0.0158081512839853 60.4947523711649 0.351935508666382 -21.6414148651777 0.0187751039981148 5.20618171055222 0.00442943279098146 59.9949954238673 
! Gamma         0                0                0                0                0                0                0                0                
! Port Impedance         50               0                50               0                50               0                50               0                
2.19425149700599               0.00588873540904061 48.6392366519212 0.0222840729313618 -3.17556922972343 0.323349471326909 -108.830176207825 0.015664304160855 -26.9641652175596 
                               0.0222840729313618 -3.1755692297234 0.00590307636786965 48.2640312851399 0.015664304160858 -26.9641652175583 0.323076306880821 -109.208079714737 
                               0.323349471326909 -108.830176207825 0.015664304160855 -26.9641652175596 0.00588873540904061 48.6392366519212 0.0222840729313618 -3.17556922972343 
                               0.015664304160858 -26.9641652175583 0.323076306880821 -109.208079714737 0.0222840729313618 -3.1755692297234 0.00590307636786965 48.2640312851399 
! Gamma         0                0                0                0                0                0                0                0                
! Port Impedance         50               0                50               0                50               0                50               0                
2.37377245508982               0.00481651502730598 53.6145769854989 0.0190727794260114 2.86315554973314 0.296983322717011 163.882891093357 0.0154512473974522 -114.276866934748 
                               0.0190727794260114 2.86315554973313 0.00483878460009426 53.3763024226498 0.0154512473974526 -114.276866934749 0.296735218393157 163.476676139056 
                               0.296983322717011 163.882891093357 0.0154512473974522 -114.276866934748 0.00481651502730598 53.6145769854989 0.0190727794260114 2.86315554973314 
                               0.0154512473974526 -114.276866934749 0.296735218393157 163.476676139056 0.0190727794260114 2.86315554973313 0.00483878460009426 53.3763024226498 
! Gamma         0                0                0                0                0                0                0                0                
! Port Impedance         50               0                50               0                50               0                50               0                
2.55329341317365               0.00609729161747553 47.6081534127541 0.0219280152707836 -1.59360579409303 0.272825089390502 76.83602102508   0.0151520052327767 158.742650210117 
                               0.0219280152707836 -1.59360579409304 0.00611494140741965 47.2676682851951 0.0151520052327752 158.742650210118 0.272601262964849 76.4014087708917 
                               0.272825089390502 76.83602102508   0.0151520052327767 158.742650210117 0.00609729161747553 47.6081534127541 0.0219280152707836 -1.59360579409303 
                               0.0151520052327752 158.742650210118 0.272601262964849 76.4014087708917 0.0219280152707836 -1.59360579409304 0.00611494140741965 47.2676682851951 
! Gamma         0                0                0                0                0                0                0                0                
! Port Impedance         50               0                50               0                50               0                50               0                
2.73281437125749               0.00521909564031295 48.8044601734902 0.0193793372898018 1.28924988332811 0.250740649029092 -9.99315945093926 0.0148116085444397 71.9167517828047 
                               0.0193793372898018 1.2892498833281  0.00524100906062283 48.5991341834014 0.0148116085444416 71.9167517828056 0.250540207257634 -10.4562771681338 
                               0.250740649029092 -9.99315945093926 0.0148116085444397 71.9167517828047 0.00521909564031295 48.8044601734902 0.0193793372898018 1.28924988332811 
                               0.0148116085444416 71.9167517828056 0.250540207257634 -10.4562771681338 0.0193793372898018 1.2892498833281  0.00524100906062283 48.5991341834014 
! Gamma         0                0                0                0                0                0                0                0                
! Port Impedance         50               0                50               0                50               0                50               0                
2.91233532934132               0.00627132785210566 46.5587797853352 0.0216121024235619 -0.508336117282419 0.230492317980385 -96.6160888488754 0.0144146117326514 -14.6485791169516 
                               0.0216121024235619 -0.508336117282438 0.00629193942669884 46.2492981439434 0.0144146117326485 -14.6485791169528 0.23031410663699 -97.107843277689 
                               0.230492317980385 -96.6160888488754 0.0144146117326514 -14.6485791169516 0.00627132785210566 46.5587797853352 0.0216121024235619 -0.508336117282419 
                               0.0144146117326485 -14.6485791169528 0.23031410663699 -97.107843277689 0.0216121024235619 -0.508336117282438 0.00629193942669884 46.2492981439434 
! Gamma         0                0                0                0                0                0                0                0                
! Port Impedance         50               0                50               0                50               0                50               0                
3.09185628742515               0.00560519099418205 45.3562902225154 0.019675647571325 0.294771359433416 0.211959777890889 176.952920450191 0.013995837986228 -101.056888972058 
                               0.019675647571325 0.294771359433415 0.00562666726159617 45.1692418852324 0.0139958379862281 -101.056888972058 0.211802600198291 176.432377577931 
                               0.211959777890889 176.952920450191 0.013995837986228 -101.056888972058 0.00560519099418205 45.3562902225154 0.019675647571325 0.294771359433416 
                               0.0139958379862281 -101.056888972058 0.211802600198291 176.432377577931 0.019675647571325 0.294771359433415 0.00562666726159617 45.1692418852324 
! Gamma         0                0                0                0                0                0                0                0                
! Port Impedance         50               0                50               0                50               0                50               0                
3.27137724550898               0.00642097484463033 45.4160552017847 0.0213305452309206 0.179775351687015 0.194959701815767 90.7024932325558 0.0135425409779728 172.744885770132 
                               0.0213305452309206 0.179775351687018 0.00644411140399324 45.1359638280844 0.0135425409779734 172.744885770132 0.194822202798332 90.1529834059988 
                               0.194959701815767 90.7024932325558 0.0135425409779728 172.744885770132 0.00642097484463033 45.4160552017847 0.0213305452309206 0.179775351687015 
                               0.0135425409779734 172.744885770132 0.194822202798332 90.1529834059988 0.0213305452309206 0.179775351687018 0.00644411140399324 45.1359638280844 
! Gamma         0                0                0                0                0                0                0                0                
! Port Impedance         50               0                50               0                50               0                50               0                
3.45089820359281               0.00596587166125113 42.8956504457861 0.0199436046612442 -0.271972078090562 0.179384029893668 4.62344060980214 0.0130806328473818 86.7015881008632 
                               0.0199436046612442 -0.271972078090575 0.00598712802742924 42.7176220155259 0.013080632847385 86.7015881008647 0.17926485842485 4.0447713479199  
                               0.179384029893668 4.62344060980214 0.0130806328473818 86.7015881008632 0.00596587166125113 42.8956504457861 0.0199436046612442 -0.271972078090562 
                               0.013080632847385 86.7015881008647 0.17926485842485 4.0447713479199  0.0199436046612442 -0.271972078090575 0.00598712802742924 42.7176220155259 
! Gamma         0                0                0                0                0                0                0                0                
! Port Impedance         50               0                50               0                50               0                50               0                
3.63041916167665               0.00655737297285337 44.1713992214376 0.0210877093378223 0.55897129693521 0.165090274646348 -81.2951631020542 0.0126005861888652 0.832320480765464 
                               0.0210877093378223 0.558971296935208 0.00658251195162535 43.9195881582569 0.0126005861888647 0.832320480765036 0.164988002162611 -81.9032097594199 
                               0.165090274646348 -81.2951631020542 0.0126005861888652 0.832320480765464 0.00655737297285337 44.1713992214376 0.0210877093378223 0.55897129693521 
                               0.0126005861888647 0.832320480765036 0.164988002162611 -81.9032097594199 0.0210877093378223 0.558971296935208 0.00658251195162535 43.9195881582569 
! Gamma         0                0                0                0                0                0                0                0                
! Port Impedance         50               0                50               0                50               0                50               0                
3.80994011976048               0.00629473687996965 41.1369744926112 0.0201703560021477 -0.534863418051276 0.151982132958722 -167.059375749162 0.0121207469930419 -84.8874707222816 
                               0.0201703560021477 -0.534863418051278 0.00631613035533928 40.9628044439149 0.0121207469930432 -84.8874707222811 0.151895373018968 -167.697023765347 
                               0.151982132958722 -167.059375749162 0.0121207469930419 -84.8874707222816 0.00629473687996965 41.1369744926112 0.0201703560021477 -0.534863418051276 
                               0.0121207469930432 -84.8874707222811 0.151895373018968 -167.697023765347 0.0201703560021477 -0.534863418051278 0.00631613035533928 40.9628044439149 
! Gamma         0                0                0                0                0                0                0                0                
! Port Impedance         50               0                50               0                50               0                50               0                
3.98946107784431               0.00669032292872474 42.854822617736  0.0208892076226648 0.709514475823791 0.139947836347462 107.320733342739 0.0116346924973943 -170.459130039244 
                               0.0208892076226648 0.709514475823791 0.00671690170349603 42.6296758202206 0.0116346924973946 -170.459130039243 0.139875187209845 106.653238523957 
                               0.139947836347462 107.320733342739 0.0116346924973943 -170.459130039244 0.00669032292872474 42.854822617736  0.0208892076226648 0.709514475823791 
                               0.0116346924973946 -170.459130039243 0.139875187209845 106.653238523957 0.0208892076226648 0.709514475823791 0.00671690170349603 42.6296758202206 
! Gamma         0                0                0                0                0                0                0                0                
! Port Impedance         50               0                50               0                50               0                50               0                
4.16898203592814               0.0065884631685886 39.861960186032  0.0203493985175904 -0.594620009185788 0.12890261564342 21.8408898885097 0.0111546715840999 104.110920467296 
                               0.0203493985175904 -0.594620009185789 0.00661037544098732 39.6893956073891 0.0111546715841014 104.110920467296 0.128842740065027 21.1433045858795 
                               0.12890261564342 21.8408898885097 0.0111546715840999 104.110920467296 0.0065884631685886 39.861960186032  0.0203493985175904 -0.594620009185788 
                               0.0111546715841014 104.110920467296 0.128842740065027 21.1433045858795 0.0203493985175904 -0.594620009185789 0.00661037544098732 39.6893956073891 
! Gamma         0                0                0                0                0                0                0                0                
! Port Impedance         50               0                50               0                50               0                50               0                
4.34850299401198               0.00682686179672191 41.5164858010362 0.0207378183215601 0.704104520134622 0.118757811576896 -63.5078200752298 0.0106768480784544 18.8104437336119 
                               0.0207378183215601 0.704104520134623 0.0068543427855482 41.3154220135414 0.0106768480784539 18.8104437336111 0.118709404959343 -64.2357559423271 
                               0.118757811576896 -63.5078200752298 0.0106768480784544 18.8104437336119 0.00682686179672191 41.5164858010362 0.0207378183215601 0.704104520134622 
                               0.0106768480784539 18.8104437336111 0.118709404959343 -64.2357559423271 0.0207378183215601 0.704104520134623 0.0068543427855482 41.3154220135414 
! Gamma         0                0                0                0                0                0                0                0                
! Port Impedance         50               0                50               0                50               0                50               0                
4.52802395209581               0.00684674366229047 38.9053892776058 0.0204801248202596 -0.531306030055745 0.109439805476473 -148.728765058277 0.0102088401387659 -66.3574770830866 
                               0.0204801248202596 -0.531306030055743 0.00686950243012817 38.7341141702354 0.0102088401387667 -66.3574770830854 0.10940164016456 -149.487303824834 
                               0.109439805476473 -148.728765058277 0.0102088401387659 -66.3574770830866 0.00684674366229047 38.9053892776058 0.0204801248202596 -0.531306030055745 
                               0.0102088401387667 -66.3574770830854 0.10940164016456 -149.487303824834 0.0204801248202596 -0.531306030055743 0.00686950243012817 38.7341141702354 
! Gamma         0                0                0                0                0                0                0                0                
! Port Impedance         50               0                50               0                50               0                50               0                
4.70754491017964               0.00697070608756212 40.2115434831672 0.0206321646474538 0.605961432819045 0.100877389164621 126.170445716041 0.00974871558491856 -151.409456707556 
                               0.0206321646474538 0.605961432819055 0.00699864008590299 40.0310508036982 0.00974871558491418 -151.409456707558 0.100848299475676 125.381040919809 
                               0.100877389164621 126.170445716041 0.00974871558491856 -151.409456707556 0.00697070608756212 40.2115434831672 0.0206321646474538 0.605961432819045 
                               0.00974871558491418 -151.409456707558 0.100848299475676 125.381040919809 0.0206321646474538 0.605961432819055 0.00699864008590299 40.0310508036982 
! Gamma         0                0                0                0                0                0                0                0                
! Port Impedance         50               0                50               0                50               0                50               0                
4.88706586826347               0.00707184178481495 38.145102702596  0.0205666114396749 -0.406134466900995 0.0930074331590695 41.1868210094154 0.00930078955020489 123.661374288174 
                               0.0205666114396749 -0.406134466900988 0.00709567344344907 37.975964206541  0.00930078955020735 123.661374288175 0.0929863366799732 40.3662985561852 
                               0.0930074331590695 41.1868210094154 0.00930078955020489 123.661374288174 0.00707184178481495 38.145102702596  0.0205666114396749 -0.406134466900995 
                               0.00930078955020735 123.661374288175 0.0929863366799732 40.3662985561852 0.0205666114396749 -0.406134466900988 0.00709567344344907 37.975964206541  
! Gamma         0                0                0                0                0                0                0                0                
! Port Impedance         50               0                50               0                50               0                50               0                
5.06658682634731               0.00712244590074669 38.9880765085238 0.0205670302080148 0.466270324728085 0.0857720147331837 -43.6859381761831 0.00886436174152637 38.8381672603063 
                               0.0205670302080148 0.466270324728091 0.00715051574569642 38.8240977964923 0.00886436174152454 38.8381672603042 0.0857579068497386 -44.5378354042188 
                               0.0857720147331837 -43.6859381761831 0.00886436174152637 38.8381672603063 0.00712244590074669 38.9880765085238 0.0205670302080148 0.466270324728085 
                               0.00886436174152454 38.8381672603042 0.0857579068497386 -44.5378354042188 0.0205670302080148 0.466270324728091 0.00715051574569642 38.8240977964923 