! Touchstone file exported from HFSS 2022.2.0
!        File:           C:/Users/dkcdn/Downloads/ViaModelMaterials/SimulationModel/HFSS/single_via_freq_dep_12mil_2port.aedt
!        Generated:      12:27:33 PM  Oct 24, 2024
!        Design:         HFSSDesign1
!        Project:        single_via_freq_dep_12mil_2port
!        Setup:          Setup1
!        Solution:       Sweep
!
! Variables:
!        apad = 4mil
!        bantipad = 10mil
!        dk = 3.5
!        hudie = 15.3mil
!        rvia = 4mil
!        tgnd = 1.3mil
!
# GHz S MA R 50.000000
! Terminal data exported
! Port[1] = via_T2
! Port[2] = via_T1
0.04                           0.0037453002104913 9.11521319712077 0.99628206608083 -0.096073275478534 0.99628206608083 -0.0960732754785339 0.00374530103490982 9.11516876609155 
! Gamma         0.0793600149879115 1.70702117086768 0.079355791964324 1.70694540999633 
! Port Impedance         50               0                50               0                
0.08                           0.00390059303140693 16.9786527655547 0.996231005842446 -0.188360081868767 0.996231005842446 -0.188360081868768 0.00390059569083057 16.9785511831534 
! Gamma         0.122544787085959 3.36166650301099 0.122534530756629 3.36151598633906 
! Port Impedance         50               0                50               0                
0.12                           0.00412031596876837 24.0155109160044 0.996168159631324 -0.281437064345711 0.996168159631324 -0.281437064345713 0.0041195888776953 24.0122410972676 
! Gamma         0.160700332664787 5.00426845477832 0.160680263646482 5.00404495614977 
! Port Impedance         50               0                50               0                
0.16                           0.00438985932868821 30.2818188440435 0.996085795455559 -0.373804248505695 0.996085795455559 -0.3738042485057 0.00438877492906907 30.2850549896801 
! Gamma         0.194787190761352 6.63911956691448 0.194754826942857 6.63882576553358 
! Port Impedance         50               0                50               0                
0.2                            0.00471371665593857 35.8450302290157 0.996012067616518 -0.464766567357801 0.996012067616518 -0.464766567357808 0.00471288324705012 35.8523343601429 
! Gamma         0.225583478906205 8.27001532301927 0.225537588048846 8.26965343410376 
! Port Impedance         50               0                50               0                
0.24                           0.00508709334834886 40.6302528889576 0.995948519451101 -0.555270697364912 0.995948519451101 -0.555270697364918 0.00508658920266815 40.6380482247531 
! Gamma         0.254880861476635 9.89813464102146 0.25482030579663 9.8977063790913  
! Port Impedance         50               0                50               0                
0.28                           0.00549995890526366 44.6717444949632 0.995890799130954 -0.645816724135099 0.995890799130954 -0.645816724135105 0.00549971981737521 44.6783077477531 
! Gamma         0.283433477395723 11.5237681599257 0.283357143050331 11.5232751022144 
! Port Impedance         50               0                50               0                
0.32                           0.00594308257863855 48.0616964150695 0.995834081806781 -0.73661622547607 0.99583408180678 -0.736616225476074 0.00594302445438906 48.0664603375365 
! Gamma         0.311479718805805 13.147072151504  0.311386587851456 13.1465158545107 
! Port Impedance         50               0                50               0                
0.36                           0.00640942227274465 50.9043643674681 0.995774499121022 -0.827731350245358 0.995774499121022 -0.827731350245361 0.00640947127989208 50.9072980039943 
! Gamma         0.339060475085478 14.7682285353329 0.338949675350589 14.7676105408217 
! Port Impedance         50               0                50               0                
0.4                            0.00689395059129248 53.2949378061    0.995709251147285 -0.919154441401745 0.995709251147284 -0.919154441401747 0.00689404754113512 53.2962267779064 
! Gamma         0.366164689222214 16.3874485844008 0.366035506145252 16.3867703936613 
! Port Impedance         50               0                50               0                
0.44                           0.00739315706400002 55.3132060590552 0.995636393260383 -1.01084861642938 0.995636393260382 -1.01084861642938 0.00739325574806894 55.3131070781321 
! Gamma         0.392784557820468 18.0049486130309 0.392636421613114 18.0042116613407 
! Port Impedance         50               0                50               0                
0.48                           0.00790459511902612 57.0236260478724 0.995554596600896 -1.1027673626883 0.995554596600897 -1.1027673626883 0.00790465989998903 57.0224042987118 
! Gamma         0.418930040810085 19.6209302441301 0.418762502734787 19.6201358849325 
! Port Impedance         50               0                50               0                
0.52                           0.0084265448747694 58.4775253893148 0.995462954793294 -1.19486347328049 0.995462954793294 -1.19486347328049 0.00842654871772879 58.4754289661687 
! Gamma         0.444627497478123 21.2355701515216 0.444440204234287 21.2347196506463 
! Port Impedance         50               0                50               0                
0.56                           0.00895777932775743 59.7156538671389 0.995360843528344 -1.28709269655888 0.995360843528345 -1.28709269655888 0.0089577023682396 59.7129043737157 
! Gamma         0.469913738163711 22.8490171532779 0.46970640900982 22.8481116905474 
! Port Impedance         50               0                50               0                
0.6                            0.00949740633491267 60.7704552053025 0.995247823282935 -1.3794148332946 0.995247823282936 -1.3794148332946 0.00949723484718173 60.7672452945925 
! Gamma         0.49483007651752 24.4613936536617 0.494602484852244 24.4604343288946 
! Port Impedance         50               0                50               0                
0.64                           0.0100447622073616 61.6679085838872 0.995123573678685 -1.47179366287875 0.995123573678684 -1.47179366287875 0.0100444878297254 61.6644024188804 
! Gamma         0.51941786089252 26.0727991281619 0.51916982040292 26.0717869691954 
! Port Impedance         50               0                50               0                
0.68                           0.010599339350348 62.4289627918344 0.994987849948052 -1.56419638801678 0.994987849948053 -1.56419638801678 0.0105989584630271 62.4252976873606 
! Gamma         0.543715650764129 27.6833142103463 0.543447005510026 27.6822501814858 
! Port Impedance         50               0                50               0                
0.72                           0.0111607360793093 63.0706350287653 0.994840454444453 -1.65659293212382 0.994840454444454 -1.65659293212382 0.0111602492680428 63.0669235263066 
! Gamma         0.567757738462314 29.2930046029823 0.567468356037822 29.2918896129555 
! Port Impedance         50               0                50               0                
0.76                           0.0117286208456316 63.6068492275437 0.994681218227092 -1.7489552417043 0.994681218227092 -1.74895524170431 0.0117280324113986 63.6031812838562 
! Gamma         0.591573621340424 30.9019244642167 0.591263388283965 30.9007593731864 
! Port Impedance         50               0                50               0                
0.8                            0.0123027058609243 64.0490772224005 0.994509989328472 -1.84125665421491 0.994509989328472 -1.84125665421491 0.0123020233537516 64.0455223775982 
! Gamma         0.615188075921747 32.5101191664489 0.614856894682336 32.5089047919463 
! Port Impedance         50               0                50               0                
0.84                           0.0128827269000138 64.4068322139881 0.994326625437477 -1.93347134716271 0.994326625437478 -1.93347134716272 0.0128819606655451 64.40344168372   
! Gamma         0.638621570621349 34.117627452808  0.638269357550104 34.1163645746205 
! Port Impedance         50               0                50               0                
0.88                           0.0134684272114082 64.6880517856764 0.994130989510565 -2.02557386383951 0.994130989510565 -2.02557386383952 0.0134675899451073 64.6848604558393 
! Gamma         0.661890835718415 35.7244830718186 0.661517519702   35.7231724359515 
! Port Impedance         50               0                50               0                
0.92                           0.0140595441981215 64.8993980988666 0.993922947354637 -2.11753870317611 0.993922947354638 -2.11753870317613 0.0140586505054173 64.8964264160312 
! Gamma         0.685009474917115 37.3307159869994 0.684614996390333 37.3293583088659 
! Port Impedance         50               0                50               0                
0.96                           0.0146557980034921 65.0464956531446 0.993702366583571 -2.20933995941412 0.993702366583571 -2.20933995941414 0.0146548639660254 65.0437514105277 
! Gamma         0.707988550533329 38.9363532544435 0.70757286069951 38.934949221433  
! Port Impedance         50               0                50               0                
1                              0.0152568814438506 65.1341216695357 0.993469116591089 -2.30095099835964 0.99346911659109 -2.30095099835966 0.0152559241929716 65.1316016917209 
! Gamma         0.730837106801786 40.5414196491776 0.730400166955465 40.539969922742  
! Port Impedance         50               0                50               0                
1.04                           0.0158624509345692 65.1663602712562 0.993223069344352 -2.3923441592475 0.993223069344352 -2.39234415924752 0.0158614882338394 65.1640520025246 
! Gamma         0.753562616689134 42.1459381063703 0.753104397580816 42.1444433237425 
! Port Impedance         50               0                50               0                
1.08                           0.0164721181971892 65.1467288081119 0.992964100911719 -2.48349047391378 0.99296410091172 -2.48349047391381 0.0164711680360929 65.1446118101905 
! Gamma         0.776171350272997 43.7499300292629 0.775691831485645 43.7483908049017 
! Port Impedance         50               0                50               0                
1.12                           0.0170854426372883 65.0782826039969 0.992692093712061 -2.57435939771121 0.992692093712062 -2.57435939771124 0.017084522838816 65.0763299693541 
! Gamma         0.79866866985661 45.3534155033254 0.798167839182135 45.3518324301586 
! Port Impedance         50               0                50               0                
1.16                           0.0177019243607419 64.963702885279  0.992406939523283 -2.66491854930411 0.992406939523283 -2.66491854930415 0.0177010522060482 64.9618825717476 
! Gamma         0.821059260482217 46.9564134459621 0.820537113297184 46.954787096483  
! Port Impedance         50               0                50               0                
1.2                            0.0183209978593841 64.8053715158886 0.9921085433216  -2.75513345915758 0.992108543321601 -2.75513345915762 0.0183201897333226 64.8036476078224 
! Gamma         0.843347305750599 48.5589417130447 0.842803844396024 48.5572726403016 
! Port Impedance         50               0                50               0                
1.24                           0.0189420264512483 64.6054353121249 0.991796828044336 -2.84496732924803 0.991796828044337 -2.84496732924807 0.0189412975132692 64.6037692120792 
! Gamma         0.865536618773354 50.1610171773654 0.864971851945852 50.1593059158716 
! Port Impedance         50               0                50               0                
1.28                           0.0195642976085966 64.3658620569766 0.991471740379811 -2.93438080933875 0.991471740379812 -2.93438080933879 0.0195636614941819 64.3642136105068 
! Gamma         0.887630737285259 51.7626557894581 0.887044679447142 51.7609028560441 
! Port Impedance         50               0                50               0                
1.32                           0.0201870193498913 64.0884898245092 0.991133257688136 -3.02333179813976 0.991133257688138 -3.02333179813981 0.0201864879083693 64.0868183788118 
! Gamma         0.909632990811049 53.3638726278264 0.909025661626127 53.3620785224445 
! Port Impedance         50               0                50               0                
1.36                           0.0208093179095281 63.7750708189335 0.990781396145522 -3.11177528082978 0.990781396145522 -3.11177528082983 0.020808900984647 63.7733362140941 
! Gamma         0.931546546549118 54.9646819431525 0.930917970349645 54.962847149645  
! Port Impedance         50               0                50               0                
1.4                            0.0214302369301463 63.4273106023218 0.990416220180003 -3.19966321773421 0.990416220180003 -3.19966321773426 0.0214299421901382 63.425474091709  
! Gamma         0.953374439439846 56.5650971993339 0.952724644728438 56.5632221861668 
! Port Impedance         50               0                50               0                
1.44                           0.022048738444367 63.0469033095044 0.990037853225608 -3.28694450233829 0.990037853225608 -3.28694450233835 0.0220485712682731 63.0449284037025 
! Gamma         0.975119590800035 58.1651311129918 0.974448609788933 58.1632163339599 
! Port Impedance         50               0                50               0                
1.48                           0.0226637059228884 62.6355632150567 0.989646489762131 -3.37356501009605 0.989646489762132 -3.3735650100961 0.0226636693495682 62.6334164415245 
! Gamma         0.996784818959061 59.764795692303  0.996092687147732 59.7628415872052 
! Port Impedance         50               0                50               0                
1.52                           0.0232739496604209 62.1950528170007 0.989242408526079 -3.45946776240699 0.989242408526079 -3.45946776240705 0.0232740444058128 62.1927043857943 
! Gamma         1.01837284453408 61.3641022754871 1.01765960032502 61.3621092707739 
! Port Impedance         50               0                50               0                
1.56                           0.0238782147462546 61.7272074305656 0.988825986673253 -3.54459323229796 0.988825986673253 -3.54459323229802 0.0238784392930219 61.7246317948946 
! Gamma         1.03988629232445 62.9630615689671 1.03915197667619 62.96103007836   
! Port Impedance         50               0                50               0                
1.6                            0.0244751918188068 61.2339561417324 0.98839771454473 -3.62887981928412 0.988397714544731 -3.62887981928418 0.0244755425804276 61.2311324411651 
! Gamma         1.06132769127597 64.5616836850482 1.06057234739154 64.559614110131  
! Port Impedance         50               0                50               0                
1.64                           0.0250635307305104 60.7173388560707 0.98795821053778 -3.71226452001579 0.98795821053778 -3.71226452001584 0.0250640022891216 60.7142512300767 
! Gamma         1.08269947354661 66.1599781788714 1.08192314659537 66.1578709096534 
! Port Impedance         50               0                50               0                
1.68                           0.0256418571495561 60.1795190968733 0.987508235417847 -3.79468381801393 0.987508235417847 -3.79468381801398 0.0256424425635165 60.176156857104  
! Gamma         1.10400397338065 67.7579540843813 1.10320671025094 67.7558094998326 
! Port Impedance         50               0                50               0                
1.72                           0.0262087919990034 59.6227921625967 0.98704870523704 -3.87607480943591 0.987048705237041 -3.87607480943596 0.0262094831722734 59.6191498143058 
! Gamma         1.12524342625011 69.3556199490564 1.12442527533018 69.3534384176153 
! Port Impedance         50               0                50               0                
1.76                           0.0267629734851277 59.0495882522422 0.98658070186414 -3.95637657187917 0.986580701864139 -3.95637657187921 0.0267637615864064 59.0456653584196 
! Gamma         1.14641996853799 70.9529838671889 1.14558097952251 70.9507657472425 
! Port Impedance         50               0                50               0                
1.8                            0.0273030813022581 58.4624702128195 0.986105480001157 -4.03553176944255 0.986105480001158 -4.0355317694426 0.0273039572176545 58.458271099163  
! Gamma         1.16753563790288 72.5500535115446 1.16667586162235 72.5477991518826 
! Port Impedance         50               0                50               0                
1.84                           0.0278278624309257 57.8641256577519 0.985624469486353 -4.11348846972024 0.985624469486354 -4.11348846972027 0.0278288172301321 57.8596589624103 
! Gamma         1.18859237436922 74.1468361632794 1.18771186263992 74.1445459035223 
! Port Impedance         50               0                50               0                
1.88                           0.0283361577830256 57.2573533482232 0.985139271689549 -4.19020212772058 0.985139271689549 -4.19020212772061 0.0283371831759577 57.2526314271157 
! Gamma         1.2095920221227  75.7433387400397 1.20869082761462 75.7410129110421 
! Port Impedance         50               0                50               0                
1.92                           0.0288269288073452 56.6450439159254 0.984651648917756 -4.26563766913392 0.984651648917756 -4.26563766913394 0.0288280175664363 56.6400821220436 
! Gamma         1.23053633194798 77.339567822209  1.22961450806871 77.33720674644   
! Port Impedance         50               0                50               0                
1.96                           0.0292992830673332 56.0301552254685 0.984163505986694 -4.33977158283974 0.984163505986694 -4.33977158283976 0.0293004293905414 56.0249710884001 
! Gamma         1.25142696422183 78.9355296773059 1.25048456501425 78.9331336692061 
! Port Impedance         50               0                50               0                
2                              0.0297524977552296 55.4156829132112 0.983676863485099 -4.41259391256619 0.983676863485099 -4.4125939125662 0.0297536975466401 55.4102952524563 
! Gamma         1.27226549236216 80.5312302825638 1.27130257241424 80.5287996488817 
! Port Impedance         50               0                50               0                
2.04                           0.0301860401239926 54.804626877416  0.983193822756501 -4.48411002309682 0.983193822756501 -4.48411002309682 0.0301872911727868 54.7990548892936 
! Gamma         1.29305340663058 82.1266753457482 1.29207002099562 82.1242103858562 
! Port Impedance         50               0                50               0                
2.08                           0.0305995839064298 54.1999547114224 0.982716523220741 -4.55434201029271 0.98271652322074 -4.5543420102927 0.0306008859509071 54.1942170735294 
! Gamma         1.313792118189   83.7218703242864 1.31278832231491 83.7193713304786 
! Port Impedance         50               0                50               0                
2.12                           0.0309930209479565 53.6045632455682 0.982247093308196 -4.62332962894884 0.982247093308197 -4.62332962894883 0.0309943756188324 53.5986772843598 
! Gamma         1.33448296331768 85.3168204427973 1.33345881298401 85.3142877005688 
! Port Impedance         50               0                50               0                
2.16                           0.0313664674957737 53.0212394768063 0.981787596919379 -4.69113062965106 0.981787596919379 -4.69113062965104 0.0313678781416182 53.0152204422666 
! Gamma         1.3551272077116  86.9115307091161 1.35408275897325 86.9089644974269 
! Port Impedance         50               0                50               0                
2.2                            0.0317202648461746 52.4526222045486 0.981339977876653 -4.75782042543962 0.981339977876653 -4.75782042543959 0.0317217362527886 52.4464826908991 
! Gamma         1.3757260507825  88.5060059289179 1.37466135991923 88.5034065204412 
! Port Impedance         50               0                50               0                
2.24                           0.0320549743308012 51.9011656524735 0.980906005228126 -4.82349104959898 0.980906005228127 -4.82349104959896 0.0320565123546603 51.8949151956125 
! Gamma         1.39628062990505 90.1002507190418 1.39519575337583 90.0976183803976 
! Port Impedance         50               0                50               0                
2.28                           0.0323713668973525 51.3691062426917 0.980487222433272 -4.88824941393981 0.980487222433273 -4.88824941393978 0.0323729780401209 51.362751113956  
! Gamma         1.41679202455611 91.6942695196194 1.41568701895784 91.6916045115961 
! Port Impedance         50               0                50               0                
2.32                           0.0326704077868113 50.858433512955  0.980084903365911 -4.95221492777369 0.980084903365912 -4.95221492777366 0.0326720987425495 50.8519767157773 
! Gamma         1.43726126030657 93.2880666051105 1.43613618233641 93.2853691828733 
! Port Impedance         50               0                50               0                
2.36                           0.0329532370084302 50.3708659478533 0.97970001770596 -5.01551658587844 0.979700017705961 -5.01551658587841 0.0329550142169982 50.3643074100197 
! Gamma         1.45768931263436 94.8816460943408 1.45654421905527 94.8789165076298 
! Port Impedance         50               0                50               0                
2.4                            0.0332211464528703 49.9078322530652 0.979333207685559 -5.078289673637  0.97933320768556 -5.07828967363696 0.033223015691934 49.9011691938315 
! Gamma         1.47807711053569 96.4750119596375 1.47691205814475 96.4722504529544 
! Port Impedance         50               0                50               0                
2.44                           0.0334755545583513 49.4704583592197 0.978984777369788 -5.14067226465119 0.978984777369789 -5.14067226465117 0.0334775206024958 49.4636857987673 
! Gamma         1.49842553991899 98.0681680351475 1.4972405855182  98.0653748479336 
! Port Impedance         50               0                50               0                
2.48                           0.0337179794573112 49.0595602172124 0.978654694772893 -5.20280169758272 0.978654694772893 -5.20280169758269 0.0337200458264886 49.0526715868676 
! Gamma         1.51873544677234 99.6611180244223 1.51753064714157 99.6582933912273 
! Port Impedance         50               0                50               0                
2.52                           0.0339500114907415 48.6756422528836 0.978342606233756 -5.264811213939  0.978342606233757 -5.26481121393897 0.0339521803023641 48.6686300589554 
! Gamma         1.53900764010064 101.253865507343 1.53778305197248 101.251009657986 
! Port Impedance         50               0                50               0                
2.56                           0.0341732858967292 48.3189011922705 0.97804786169113 -5.3268269183218 0.978047861691131 -5.32682691832178 0.0341755578269795 48.3117576847051 
! Gamma         1.55924289463304 102.846413946459 1.5579985746695  102.843527106178 
! Port Impedance         50               0                50               0                
2.6                            0.0343894563726137 47.9892348500306 0.977769548883623 -5.38896519041856 0.977769548883623 -5.38896519041855 0.034391830723888 47.9819526492026 
! Gamma         1.5794419533052  104.438766692792 1.57817795807592 104.435849082396 
! Port Impedance         50               0                50               0                
2.64                           0.0346001700895577 47.6862553891614 0.977506534098523 -5.45133063806876 0.977506534098525 -5.45133063806875 0.0346026449531446 47.6788280297388 
! Gamma         1.59960552952328 106.030926991184 1.59832191548529 106.027978827187 
! Port Impedance         50               0                50               0                
2.68                           0.0348070446148835 47.4093065035712 0.977257506923511 -5.51401463785944 0.977257506923512 -5.51401463785943 0.0348096171116228 47.4017288627228 
! Gamma         1.61973430921936 107.622897985221 1.61843113269814 107.619919479977 
! Port Impedance         50               0                50               0                
2.72                           0.0350116470788135 47.1574839396638 0.977021026502991 -5.57709446839896 0.977021026502992 -5.57709446839896 0.0350143136560114 47.149752527     
! Gamma         1.63982895270911 109.214682721786 1.63850626988099 109.211674083615 
! Port Impedance         50               0                50               0                
2.76                           0.0352154758131086 46.9296587528194 0.976795567030957 -5.64063300534426 0.976795567030958 -5.64063300534426 0.0352182325735066 46.9217718505168 
! Gamma         1.65989009636415 110.806284155284 1.65854796323991 110.803245588596 
! Port Impedance         50               0                50               0                
2.8                            0.0354199445916787 46.7245026858601 0.976579560574389 -5.70467891888181 0.97657956057439 -5.70467891888181 0.0354227876298018 46.7164603383539 
! Gamma         1.67991835411187 112.397705151585 1.67855682652148 112.394636856996 
! Port Impedance         50               0                50               0                
2.84                           0.035626369518311 46.5405150571263 0.976371435760548 -5.76926729486837 0.976371435760548 -5.76926729486837 0.035629295240796 46.5323189198393 
! Gamma         1.69991431877612 113.988948491691 1.69853345235462 113.985850666136 
! Port Impedance         50               0                50               0                
2.88                           0.0358359585338693 46.3760505556804 0.976169651325382 -5.83442059023415 0.976169651325382 -5.83442059023415 0.0358389639430755 46.3677036208435 
! Gamma         1.7198785632721  115.580016875193 1.71847841344652 115.576889712032 
! Port Impedance         50               0                50               0                
2.92                           0.0360498034540426 46.2293473611639 0.975972723964969 -5.90014983063139 0.97597272396497 -5.90014983063139 0.0360528863779943 46.2208535854506 
! Gamma         1.73981164166882 117.170912923508 1.73839226364612 117.167756612631 
! Port Impedance         50               0                50               0                
2.96                           0.0362688743983259 46.0985550371695 0.975779250325153 -5.96645596217103 0.975779250325152 -5.96645596217103 0.0362720336544154 46.0899189004065 
! Gamma         1.7597140901318  118.761639182943 1.75827553888781 118.75845391087  
! Port Impedance         50               0                50               0                
3                              0.0364940164309036 45.9817616903892 0.975587923286642 -6.03333127764546 0.975587923286643 -6.03333127764546 0.0364972519154344 45.9729877170225 
! Gamma         1.77958642775868 120.352198127595 1.77812875802798 120.348984077571 
! Port Impedance         50               0                50               0                
3.04                           0.0367259482041326 45.8770199432942 0.975397542945557 -6.10076084908973 0.975397542945557 -6.10076084908972 0.0367292609044035 45.8681122187145 
! Gamma         1.7994291573194  121.942592162107 1.79795242358608 121.939349514193 
! Port Impedance         50               0                50               0                
3.08                           0.0369652623751798 45.7823713346917 0.975207022853463 -6.16872391126842 0.975207022853462 -6.16872391126842 0.0369686543051401 45.7733330472317 
! Gamma         1.81924276591208 123.532823624285 1.81774702240149 123.529552555452 
! Port Impedance         50               0                50               0                
3.12                           0.0372124275557409 45.6958688384662 0.975015392173843 -6.2371951533607 0.975015392173843 -6.23719515336069 0.0372159016201635 45.6867018752141 
! Gamma         1.8390277255452  125.122894787613 1.8375130262164  125.119595471821 
! Port Impedance         50               0                50               0                
3.16                           0.0374677915534057 45.6155972737606 0.974821794444748 -6.30614588774696 0.974821794444748 -6.30614588774694 0.0374713513489319 45.6063018946183 
! Gamma         1.85878449365548 126.71280786364  1.85725089219466 126.709480471927 
! Port Impedance         50               0                50               0                
3.2                            0.037731585670751 45.539691467264  0.974625483622544 -6.37554507468252 0.974625483622544 -6.37554507468251 0.0377352352350173 45.530266077392  
! Gamma         1.87851351357066 128.302565004291 1.8769610633852  128.299209704847 
! Port Impedance         50               0                50               0                
3.24                           0.038003929844197 45.4663521181915 0.974425818031411 -6.44536018933299 0.974425818031411 -6.44536018933296 0.038007673366657 45.4567931543248 
! Gamma         1.89821521492504 129.892168304068 1.89664396913844 129.888785262315 
! Port Impedance         50               0                50               0                
3.28                           0.0382848384288256 45.3938594076312 0.974222252767521 -6.51555792287059 0.974222252767521 -6.51555792287057 0.0382886799388466 45.3841613491365 
! Gamma         1.91789001403536 131.481619802182 1.91630002548281 131.478209180849 
! Port Impedance         50               0                50               0                
3.32                           0.0385742264675796 45.3205844868109 0.974014331012838 -6.58610471189917 0.974014331012838 -6.58610471189915 0.0385781695170987 45.3107399979163 