! Touchstone file exported from HFSS 2022.2.0
!        File:           C:/Users/dkcdn/Desktop/Davit/Via Model/Ansys/Ansys Examples/Via Exmp 1/Project1.aedt
!        Generated:      3:12:28 PM  Oct 23, 2024
!        Design:         HFSSDesign1
!        Project:        Project1
!        Setup:          Setup1
!        Solution:       Sweep
!
! Variables:
!        a = 1600
!        h = 15.3
!        ra = 15
!        ro = 4
!        t = 1.3
!
# GHz S MA R 50.000000
! Terminal data exported
! Port[1] = via_1
! Port[2] = via_2
0.04                           0.00466021841199302 8.52424452770166 0.995376101877346 -0.0875082409066955 0.995376101877347 -0.0875082409066961 0.00466021832454484 8.52424451317849 
! Gamma         0.0561080526646101 1.68189607859527 0.0561107675739098 1.68190220183336 
! Port Impedance         50               0                50               0                
0.08                           0.00482980109420453 15.9264455244051 0.995326721533524 -0.170975169023018 0.995326721533524 -0.170975169023019 0.00482980023014014 15.9264466358784 
! Gamma         0.089024778968061 3.32578535158911 0.0890313913899042 3.32579491108676 
! Port Impedance         50               0                50               0                
0.12                           0.00507453094519649 22.6588492559967 0.995270803563864 -0.256928267697327 0.995270803563863 -0.256928267697186 0.00507465041718075 22.661552999146  
! Gamma         0.113102024809562 4.95979180342928 0.113112305287815 4.9598031135144  
! Port Impedance         50               0                50               0                
0.16                           0.00537558096929792 28.6057008807877 0.995173551650261 -0.344204142196706 0.995173551650263 -0.344204142196216 0.0053760565408234 28.6088850759751 
! Gamma         0.134603883022812 6.59146421588566 0.134617757666666 6.59147648467911 
! Port Impedance         50               0                50               0                
0.2                            0.00572247429217966 33.9366692022214 0.995048376189953 -0.429091346558991 0.995048376189959 -0.429091346558276 0.00572316635522967 33.9375602747592 
! Gamma         0.158936671116665 8.22056693484529 0.158954480120964 8.22057943481208 
! Port Impedance         50               0                50               0                
0.24                           0.00611759817870096 38.6859428669672 0.994916854706234 -0.511351580305769 0.994916854706249 -0.511351580305132 0.00611833398982698 38.6843522512126 
! Gamma         0.184803590386979 9.84610719796319 0.184825419772462 9.84611916441061 
! Port Impedance         50               0                50               0                
0.28                           0.00655938718932426 42.8496251755065 0.994799947742194 -0.591530687932543 0.994799947742215 -0.591530687932247 0.00656005240338373 42.8462650251685 
! Gamma         0.211200416082364 11.4680799455265 0.211226169839151 11.4680906935503 
! Port Impedance         50               0                50               0                
0.32                           0.00704165913661544 46.4427052935726 0.994707524316668 -0.670662327847091 0.994707524316689 -0.670662327847207 0.00704219741952131 46.4383910336293 
! Gamma         0.237450832790663 13.086866193103  0.237480304355587 13.0868751567988 
! Port Impedance         50               0                50               0                
0.36                           0.00755628651582348 49.5144401874297 0.994637801848651 -0.74968690566457 0.994637801848671 -0.749686905665014 0.00755668115993447 49.5098112889934 
! Gamma         0.263159351299407 14.7029639742653 0.263192279698044 14.7029707081811 
! Port Impedance         50               0                50               0                
0.4                            0.00809585506980909 52.1340834310467 0.994583258204722 -0.829164560779127 0.994583258204737 -0.829164560779767 0.00809611204338416 52.1295600197234 
! Gamma         0.288138286055872 16.3168602882305 0.288174394010731 16.3168644520473 
! Port Impedance         50               0                50               0                
0.44                           0.00865471911695865 54.3727598527842 0.994535868012773 -0.909310425148869 0.994535868012784 -0.909310425149595 0.00865485536406466 54.3685824162262 
! Gamma         0.312337681328713 17.9289766390201 0.312376698100923 17.928977977098  
! Port Impedance         50               0                50               0                
0.48                           0.0092289069128457 56.2935225016094 0.99448935926261 -0.990135592403264 0.994489359262618 -0.990135592403995 0.00922894329640129 56.2898063883891 
! Gamma         0.335789709120516 19.5396536360167 0.335831382371158 19.5396519576379 
! Port Impedance         50               0                50               0                
0.52                           0.00981566998415388 57.9486483323001 0.994439492461366 -1.07156219329978 0.994439492461371 -1.07156219330047 0.00981562742312419 57.9454296285323 
! Gamma         0.358569314847285 21.1491546742949 0.358613415428417 21.149149836964  
! Port Impedance         50               0                50               0                
0.56                           0.0104130698640884 59.3803817166412 0.994383620521215 -1.15348799748874 0.994383620521217 -1.15348799748938 0.0104129674400173 59.3776501139479 
! Gamma         0.380768644688316 22.7576773796957 0.380814967294663 22.757669276026  
! Port Impedance         50               0                50               0                
0.6                            0.0110196915093857 60.6226841007531 0.994320167049389 -1.23581517688633 0.99432016704939 -1.2358151768869 0.011019545709316 60.620404584184  
! Gamma         0.402481687108277 24.3653668859976 0.402530048753389 24.3653554338782 
! Port Impedance         50               0                50               0                
0.64                           0.0116344632638256 61.7029714164255 0.994248221084906 -1.31846005816846 0.994248221084906 -1.31846005816896 0.0116342878404857 61.7010977973957 
! Gamma         0.423795870139098 25.9723281807411 0.423846107670439 25.9723133161907 
! Port Impedance         50               0                50               0                
0.68                           0.0122565465561308 62.6435472042167 0.994167265417456 -1.40135439642265 0.994167265417456 -1.40135439642309 0.0122563526966954 62.6420301486619 
! Gamma         0.444788103841168 27.5786364847864 0.444840071193382 27.578618156878  
! Port Impedance         50               0                50               0                
0.72                           0.0128852673234838 63.4627125063948 0.994077006664078 -1.48444348866067 0.994077006664078 -1.48444348866105 0.0128850639503058 63.4615040197418 
! Gamma         0.46552350450385 29.1843454914105 0.465577070061206 29.1843236587304 
! Port Impedance         50               0                50               0                
0.76                           0.0135200717497719 64.175609382748  0.993977272936033 -1.56768348842582 0.993977272936033 -1.56768348842614 0.0135198658566258 64.1746650972095 
! Gamma         0.48605563464822 30.7894936674261 0.486110678889455 30.7894682956378 
! Port Impedance         50               0                50               0                
0.8                            0.0141604962727609 64.7948619327156 0.99386795371929 -1.6510388450661 0.993867953719288 -1.65103884506638 0.0141602932474951 64.7941420798001 
! Gamma         0.506427522612018 32.3941089453646 0.506483936097901 32.3940800055519 
! Port Impedance         50               0                50               0                
0.84                           0.0148061461958008 65.3310672854532 0.993748965321595 -1.73448015584822 0.993748965321594 -1.73448015584845 0.0148059501074525 65.3305369150086 
! Gamma         0.526673015727293 33.9982121442915 0.526730697430486 33.9981796118414 
! Port Impedance         50               0                50               0                
0.88                           0.015456679695061 65.7931757448786 0.993620231549879 -1.81798246287956 0.993620231549878 -1.81798246287976 0.0154564935384371 65.7928045379341 
! Gamma         0.546818208956098 35.6018194170812 0.546877064903323 35.6017832709346 
! Port Impedance         50               0                50               0                
0.92                           0.0161117953631209 66.1887884606075 0.993481673368321 -1.90152393765918 0.993481673368319 -1.90152393765934 0.0161116212615673 66.1885503450516 
! Gamma         0.566882808518053 37.2049439682928 0.566942750702581 37.2049041904402 
! Port Impedance         50               0                50               0                
0.96                           0.016771222173941 66.5243930559572 0.99333320380912 -1.98508487572428 0.993333203809119 -1.98508487572441 0.0167710615446042 66.5242657467326 
! Gamma         0.586881361607754 38.8075972345565 0.58694230712793 38.8075538096932 
! Port Impedance         50               0                50               0                
1                              0.01743471117181 66.8055520197431 0.993174725929904 -2.06864692908071 0.993174725929903 -2.06864692908082 0.0174345648589662 66.8055165512723 
! Gamma         0.606824325465867 40.4097896744209 0.606886195847965 40.409742589705  
! Port Impedance         50               0                50               0                
1.04                           0.0181020284279684 67.0370547150802 0.993006132521656 -2.15219251683234 0.993006132521656 -2.15219251683243 0.018101896810061 67.0370950010412 
! Gamma         0.626718972916016 42.0115312782274 0.62678169358452 42.0114805231    
! Port Impedance         50               0                50               0                
1.08                           0.0187729489531888 67.2230410651918 0.992827306813409 -2.23570436763983 0.992827306813408 -2.2357043676399 0.0187728320287271 67.2231435014364 
! Gamma         0.646570144147363 43.6128318801566 0.646633644011236 43.6127774461985 
! Port Impedance         50               0                50               0                
1.12                           0.0194472513452987 67.36710298065   0.992638123742998 -2.31916515900766 0.992638123742997 -2.3191651590077 0.0194471488020302 67.3672560962494 
! Gamma         0.666380860513608 45.2137013328755 0.666445071642491 45.2136432136845 
! Port Impedance         50               0                50               0                
1.16                           0.0201247130104095 67.472368147719  0.992438451555932 -2.40255722745869 0.992438451555931 -2.40255722745872 0.0201246242814358 67.4725623031222 
! Gamma         0.686152818229108 46.8141495888406 0.68621767559831 46.8140877799181 
! Port Impedance         50               0                50               0                
1.2                            0.0208051058381436 67.5415697366716 0.992228153609061 -2.48586233062134 0.992228153609061 -2.48586233062136 0.0208050301479367 67.5417968651106 
! Gamma         0.705886779783828 48.414186720092  0.705952221071233 48.4141212187343 
! Port Impedance         50               0                50               0                
1.24                           0.0214881922414914 67.5771047996891 0.992007090323924 -2.56906144752492 0.992007090323924 -2.56906144752493 0.0214881286441622 67.5773581867446 
! Gamma         0.725582879703422 50.0138228993075 0.725648845125033 50.0137537044977 
! Port Impedance         50               0                50               0                
1.28                           0.0221737214952274 67.5810835332625 0.991775121274636 -2.65213460736886 0.991775121274635 -2.65213460736886 0.0221736689068812 67.5813576293198 
! Gamma         0.745240859561137 51.6130683582021 0.745307291735018 51.6129954705018 
! Port Impedance         50               0                50               0                
1.32                           0.0228614263255296 67.5553711267956 0.991532107418311 -2.73506074003362 0.991532107418311 -2.73506074003361 0.0228613835521286 67.5556613873546 
! Gamma         0.764860245258275 53.2119333344518 0.764927089089014 53.211856755893  
! Port Impedance         50               0                50               0                
1.36                           0.0235510197191098 67.5016235699604 0.991277913488654 -2.81781754389619 0.991277913488654 -2.81781754389619 0.0235509854809278 67.5019263193041 
! Gamma         0.784440477726798 54.8104280147402 0.784507680304641 54.8103477487166 
! Port Impedance         50               0                50               0                
1.4                            0.0242421919337855 67.4213185197393 0.991012410579558 -2.90038136829805 0.991012410579559 -2.90038136829803 0.0242421648872664 67.4216308340406 
! Gamma         0.803981006474208 56.4085624789317 0.804048516984495 56.4084785300925 
! Port Impedance         50               0                50               0                
1.44                           0.0249346077046204 67.3157821147283 0.990735478947667 -2.98272710943281 0.990735478947667 -2.9827271094328 0.0249345864622491 67.3161017212378 
! Gamma         0.823481353834022 58.0063466485091 0.823549123473781 58.0062590226535 
! Port Impedance         50               0                50               0                
1.48                           0.0256279036510044 67.1862124550713 0.990447011061989 -3.06482811958082 0.990447011061989 -3.0648281195808 0.0256278867996243 67.1865376445941 
! Gamma         0.842941156419686 59.6037902410858 0.84300913831919 59.603698945061  
! Port Impedance         50               0                50               0                
1.52                           0.0263216859005663 67.0337003309392 0.990146914925798 -3.14665613059241 0.990146914925799 -3.14665613059239 0.0263216720184521 67.0340298812511 
! Gamma         0.862360189102337 61.2009027318744 0.862428338250087 61.2008077734781 
! Port Impedance         50               0                50               0                
1.56                           0.0270155279558142 66.8592476728164 0.989835117691274 -3.22818119336286 0.989835117691274 -3.22818119336284 0.0270155156286897 66.8595807811351 
! Gamma         0.881738375830424 62.7976933223593 0.881806649000589 62.7975947102453 
! Port Impedance         50               0                50               0                
1.6                            0.027708968838874 66.6637841072402 0.989511569580891 -3.30937163578226 0.989511569580892 -3.30937163578224 0.027708956675   66.6641203301304 
! Gamma         0.901075790764712 64.3941709159919 0.901144146446415 64.3940686595823 
! Port Impedance         50               0                50               0                
1.64                           0.02840151155869 66.4481819272527 0.989176248121427 -3.39019404230194 0.989176248121427 -3.39019404230192 0.028401498203058 66.448521126736  
! Gamma         0.920372652496925 65.9903441004643 0.920441050825052 65.9902382098655 
! Port Impedance         50               0                50               0                
1.68                           0.0290926219533509 66.2132697245362 0.988829162686294 -3.47061325884076 0.988829162686295 -3.47061325884074 0.0290926061009763 66.213612019354  
! Gamma         0.939629313535839 67.5862211359552 0.93969771622324 67.5861116218806 
! Port Impedance         50               0                50               0                
1.72                           0.0297817279676824 65.959844877003  0.988470359329952 -3.55059242725547 0.988470359329954 -3.55059242725546 0.0297817083759366 65.9601905982375 
! Gamma         0.958846246763882 69.1818099486644 0.958914617034943 69.1816968223623 
! Port Impedance         50               0                50               0                
1.76                           0.0304682194325628 65.6886850397383 0.988099925883858 -3.63009305400415 0.988099925883859 -3.63009305400413 0.0304681949324521 65.6890346901505 
! Gamma         0.978024030174511 70.7771181289276 0.978092332700179 70.777001402115  
! Port Impedance         50               0                50               0                
1.8                            0.0311514484172428 65.4005587469117 0.987717997267084 -3.70907511791785 0.987717997267084 -3.70907511791783 0.0311514179235103 65.4009129635169 
! Gamma         0.997163330882168 72.372152933216  0.997231531716541 72.3720326180173 
! Port Impedance         50               0                50               0                
1.84                           0.0318307302288296 65.0962351965897 0.987324760946146 -3.7874972221318 0.987324760946146 -3.78749722213179 0.031830692748739 65.0965947161061 
! Gamma         1.01626488914013 73.9669212893587 1.01633295565875 73.9667973982505 
! Port Impedance         50               0                50               0                
1.88                           0.0325053451335689 64.7764932583931 0.986920462458006 -3.86531679517539 0.986920462458007 -3.86531679517539 0.0325052997742085 64.7768588853609 
! Gamma         1.03532950289678 75.5614298043813 1.03539740373673 75.561302350142  
! Port Impedance         50               0                50               0                
1.92                           0.0331745408720769 64.4421297153283 0.986505410888002 -3.94249034593813 0.986505410888003 -3.94249034593812 0.0331744868460288 64.4425022927193 
! Gamma         1.05435801325869 77.1556847744074 1.05442571826069 77.1555537700715 
! Port Impedance         50               0                50               0                
1.96                           0.033837536034748 64.0939667254159 0.986079984171075 -4.01897377667056 0.986079984171076 -4.01897377667056 0.0338374726639671 64.0943471076882 
! Gamma         1.07335129110185 78.7496921961358 1.07341877125436 78.749557654953  
! Port Impedance         50               0                50               0                
2                              0.034493524353684 63.7328584661587 0.985644634061076 -4.09472275730083 0.985644634061076 -4.09472275730083 0.0344934510714429 63.7332474947821 
! Gamma         1.09231022497393 80.3434577794642 1.09237745235948 80.3433197148625 
! Port Impedance         50               0                50               0                
2.04                           0.0351416799532342 63.359696905523  0.985199890590071 -4.16969316310851 0.985199890590073 -4.16969316310852 0.0351415963040283 63.3600953870124 
! Gamma         1.11123571035542 81.9369869608916 1.11130265809904 81.9368453864445 
! Port Impedance         50               0                50               0                
2.08                           0.0357811635823638 62.9754166272533 0.984746365818912 -4.24384157616882 0.984746365818913 -4.24384157616883 0.0357810692196961 62.9758253138366 
! Gamma         1.13012864029088 83.5302849173838 1.13019528251084 83.5301398467812 
! Port Impedance         50               0                50               0                
2.12                           0.0364111298284406 62.5809986266191 0.984284756663535 -4.31712584894756 0.984284756663536 -4.31712584894757 0.0364110245104607 62.5814181996724 
! Gamma         1.14898989736041 85.1233565804409 1.14905620912122 85.123208027463  
! Port Impedance         50               0                50               0                
2.16                           0.0370307352838511 62.1774729855439 0.98381584657037 -4.38950572599894 0.983815846570372 -4.38950572599895 0.0370306188668795 62.1779040419376 
! Gamma         1.16782034693192 86.7162066501479 1.16788630419957 86.716054628642  
! Port Impedance         50               0                50               0                
2.2                            0.0376391476045677 61.7659203341275 0.983340505810859 -4.46094351693378 0.98334050581086 -4.46094351693379 0.0376390200346001 61.76636337564   
! Gamma         1.18662083161483 88.3088396090311 1.18668641121423 88.3086841328917 
! Port Impedance         50               0                50               0                
2.24                           0.0382355553642076 61.3474720094145 0.982859690171582 -4.53140481075512 0.982859690171582 -4.53140481075513 0.038235416666575 61.3479274353246 
! Gamma         1.20539216682317 89.9012597355808 1.20545734639783 89.9011008187316 
! Port Impedance         50               0                50               0                
2.28                           0.0388191785694487 60.9233088322629 0.982374437834598 -4.60085921841671 0.982374437834598 -4.60085921841672 0.0388190288368725 60.9237769352298 
! Gamma         1.22413513734914 91.4934711173283 1.22419989532295 91.4933087737064 
! Port Impedance         50               0                50               0                
2.32                           0.0393892796644121 60.4946584396956 0.981885864273967 -4.66928112719744 0.981885864273967 -4.66928112719745 0.0393891190437787 60.4951394049544 
! Gamma         1.24285049484553 93.085477663396  1.24291481038662 93.0853119069384 
! Port Impedance         50               0                50               0                
2.36                           0.0399451748147113 60.0627911330794 0.981395155039955 -4.73665044739521 0.981395155039955 -4.73665044739522 0.0399450034929528 60.0632850409288 
! Gamma         1.26153895611592 94.6772831164585 1.26160280910254 94.6771139610901 
! Port Impedance         50               0                50               0                
2.4                            0.0404862452283854 59.6290142316523 0.980903556362219 -4.80295332914816 0.980903556362219 -4.80295332914816 0.0404860634179179 59.6295210631203 
! Gamma         1.2802012021146  96.2688910640755 1.28026457310288 96.2687185236986 
! Port Impedance         50               0                50               0                
2.44                           0.0410119482431833 59.1946649555946 0.980412363576407 -4.86818282513296 0.980412363576407 -4.86818282513296 0.0410117561673864 59.1951846010974 
! Gamma         1.29883787756248 97.8603049493704 1.29890074775609 97.8601290378555 
! Port Impedance         50               0                50               0                
2.48                           0.0415218278898507 58.7611019019968 0.979922907463008 -4.93233947371254 0.979922907463008 -4.93233947371253 0.0415216257691071 58.7616341726884 
! Gamma         1.31744959109131 99.4515280810441 1.31751194231277 99.4513488122223 
! Port Impedance         50               0                50               0                
2.52                           0.0420155246312969 58.329695219217  0.97943653867946 -4.99543177703268 0.979436538679459 -4.99543177703268 0.0420153126701014 58.3302398606447 
! Gamma         1.33603691583439 101.042563642723 1.33609873049813 101.042381030379 
! Port Impedance         50               0                50               0                
2.56                           0.0424927839793895 57.9018156285103 0.978954610561962 -5.05747654977666 0.978954610561962 -5.05747654977666 0.0424925623550101 57.9023723361098 
! Gamma         1.3546003903891  102.633414701652 1.35466165147606 102.633228759518 
! Port Impedance         50               0                50               0                
2.6                            0.0429534637057864 57.4788224843595 0.978478460666505 -5.11849911688724 0.978478460666505 -5.11849911688723 0.0429532325589077 57.4793909202325 
! Gamma         1.37314052008312 104.224084216741 1.37320121111683 104.223894958491 
! Port Impedance         50               0                50               0                
2.64                           0.0433975393910106 57.0620511044202 0.978009391503014 -5.17853334257037 0.978009391503014 -5.17853334257036 0.0433972988187091 57.0626309147853 
! Gamma         1.39165777848308 105.814575045997 1.3917178835071  105.814382485245 
! Port Impedance         50               0                50               0                
2.68                           0.0438251080964613 56.6527996341783 0.977548650985883 -5.23762147821097 0.977548650985883 -5.23762147821096 0.0438248581477583 56.6533904668477 
! Gamma         1.41015260909078 107.404889953357 1.41021211264751 107.404694103648 
! Port Impedance         50               0                50               0                
2.72                           0.0442363899959066 56.2523157381907 0.97709741317249 -5.29581382324829 0.97709741317249 -5.29581382324828 0.044236130670026 56.2529172594155 
! Gamma         1.4286254271786  108.995031614949 1.42868431428928 108.994832489761 
! Port Impedance         50               0                50               0                
2.76                           0.0446317278640773 55.8617834273183 0.976656759883536 -5.35316820025903 0.976656759883536 -5.35316820025901 0.0446314591113966 55.8623953373791 
! Gamma         1.44707662172132 110.585002624824 1.44713487786716 110.584800237564 
! Port Impedance         50               0                50               0                
2.8                            0.0450115843873979 55.4823103383167 0.976227663792046 -5.40974925307013 0.976227663792045 -5.40974925307012 0.0450113061129686 55.4829323852451 
! Gamma         1.46550655738722 112.174805500172 1.46556416849165 112.174599864171 
! Port Impedance         50               0                50               0                
2.84                           0.0453765373323384 55.1149157775952 0.975810973530149 -5.46562758420187 0.975810973530148 -5.46562758420185 0.0453762494016952 55.1155477685536 
! Gamma         1.48391557655637 113.76444268607  1.4839725289682  113.764233814582 
! Port Impedance         50               0                50               0                
2.88                           0.0457272726766184 54.7605198248918 0.975407401295532 -5.52087875483721 0.975407401295532 -5.5208787548372 0.0457269749235129 54.7611616347783 
! Gamma         1.5023040013385  115.353916559777 1.50236028181612 115.353704465977 
! Port Impedance         50               0                50               0                
2.92                           0.0460645758740191 54.419933765266  0.975017513346104 -5.57558217636257 0.975017513346103 -5.57558217636255 0.0460642681096005 54.420585342287  
! Gamma         1.52067213556731 116.943229434626 1.52072773126365 116.94301413161  
! Port Impedance         50               0                50               0                
2.96                           0.0463893214814211 54.0938520805297 0.974641723657433 -5.62981992693514 0.974641723657433 -5.62981992693513 0.0463890035043397 54.0945134485815 
! Gamma         1.53902026675169 118.532383563529 1.53907516520004 118.532165064309 
! Port Impedance         50               0                50               0                
3                              0.0467024614241581 53.7828461854933 0.974280290890203 -5.68367552921936 0.974280290890203 -5.68367552921935 0.0467021330310194 53.7835174433717 
! Gamma         1.55734866796768 120.121381142129 1.55740285706822 120.121159459637 
! Port Impedance         50               0                50               0                
3.04                           0.0470050122107027 53.4873600424729 0.973933318682304 -5.73723272624899 0.973933318682303 -5.73723272624897 0.0470046732063101 53.488041360045  
! Gamma         1.57565759967837 121.710224311638 1.57571106768542 121.709999458719 
! Port Impedance         50               0                50               0                
3.08                           0.047298041428921 53.2077077316745 0.973600759150798 -5.79057429130833 0.973600759150799 -5.79057429130832 0.0472976916357721 53.2083993432862 
! Gamma         1.59394731147119 123.298915161362 1.59400004698106 123.298687150777 
! Port Impedance         50               0                50               0                
3.12                           0.0475826538632609 52.9440729979605 0.973282419370534 -5.84378090492571 0.973282419370534 -5.84378090492571 0.0475822931298177 52.9447751934727 
! Gamma         1.61221804370484 124.887455730975 1.6122700356443  124.887224575397 
! Port Impedance         50               0                50               0                
3.16                           0.0478599775658177 52.6965107385968 0.972977970495446 -5.896930127795  0.972977970495446 -5.89693012779499 0.0478596057731572 52.6972238525209 
! Gamma         1.63047002905994 126.475848012532 1.63052126667523 126.47561372455  
! Port Impedance         50               0                50               0                
3.2                            0.0481311501955257 52.4649503441916 0.972686959110325 -5.95009549304202 0.972686959110325 -5.95009549304202 0.0481307672620679 52.4656747434703 
! Gamma         1.64870349398938 128.064093952272 1.6487539668357  128.063856544384 
! Port Impedance         50               0                50               0                
3.24                           0.0483973059106023 52.2492007581909 0.972408820348061 -6.00334573514025 0.972408820348061 -6.00334573514025 0.0483969117947259 52.2499368291969 
! Gamma         1.66691866006594 129.652195452208 1.6669683579975  129.651954936826 
! Port Impedance         50               0                50               0                
3.28                           0.0486595630621255 52.0489570805848 0.972142892280859 -6.05674416637499 0.972142892280859 -6.05674416637499 0.0486591577625834 52.0497052159176 
! Gamma         1.68511574522617 131.240154371549 1.68516465838653 131.239910760994 
! Port Impedance         50               0                50               0                
3.32                           0.0489190128937046 51.8638085100425 0.971888431092508 -6.11034820546036 0.971888431092508 -6.11034820546036 0.0489185964478676 51.8645690956712 
! Gamma         1.70329496491044 132.827972527951 1.70334308372341 132.827725834455 