! Touchstone file exported from HFSS 2022.2.0
!        File:           C:/Users/dkcdn/Downloads/ViaModelMaterials/SimulationModel/HFSS/single_via_freq_dep_12mil_2port.aedt
!        Generated:      1:12:15 PM  Oct 24, 2024
!        Design:         HFSSDesign1
!        Project:        single_via_freq_dep_12mil_2port
!        Setup:          Setup1
!        Solution:       Sweep
!
! Variables:
!        apad = 4mil
!        bantipad = 7mil
!        dk = 3.5
!        hudie = 15.3mil
!        rvia = 4mil
!        tgnd = 1.3mil
!
# GHz S MA R 50.000000
! Terminal data exported
! Port[1] = via_T2
! Port[2] = via_T1
0.04                           0.00371845131311455 6.23665134785556 0.996276550408883 -0.105853951838739 0.996276550408883 -0.105853951838739 0.00371845125598577 6.23665326173424 
! Gamma         0.128946602676258 1.76113559987212 0.128967720838036 1.76118139569474 
! Port Impedance         50               0                50               0                
0.08                           0.0038028883277119 11.5603813702787 0.996221392908605 -0.207674184931373 0.996221392908605 -0.207674184931366 0.00380288814145043 11.5603940828526 
! Gamma         0.194688146653592 3.43827452467653 0.194730387521468 3.43834518821426 
! Port Impedance         50               0                50               0                
0.12                           0.00391603702993224 16.8469732643869 0.996145579317332 -0.308136333519757 0.996145579317324 -0.30813633352019 0.00391653763089918 16.8389062579873 
! Gamma         0.246866282029255 5.10048455960148 0.246923914500495 5.10057319360124 
! Port Impedance         50               0                50               0                
0.16                           0.0040810743590095 21.807329367757  0.996089582712641 -0.407159458640845 0.996089582712618 -0.407159458641335 0.0040816316118293 21.7922785883348 
! Gamma         0.295730564181367 6.75413573173993 0.295802720626288 6.75424079097749 
! Port Impedance         50               0                50               0                
0.2                            0.00427991412761445 26.0942699491843 0.996056304288241 -0.507053599135244 0.99605630428821 -0.507053599135338 0.00428032916989022 26.0780451522559 
! Gamma         0.342548014320163 8.39880235862041 0.342636530805368 8.39892028502319 
! Port Impedance         50               0                50               0                
0.24                           0.00449749689088303 29.8455404992617 0.99602117668558 -0.607856837255105 0.996021176685547 -0.607856837254723 0.00449776600040812 29.8294323425371 
! Gamma         0.386154370857964 10.037104977606  0.386258901276227 10.0372320430417 
! Port Impedance         50               0                50               0                
0.28                           0.00472955760157679 33.1924201144127 0.995974958543385 -0.709185302504019 0.995974958543352 -0.709185302503226 0.00472966305681354 33.1768530387747 
! Gamma         0.426761732083469 11.671116562631  0.426880808448679 11.6712499913567 
! Port Impedance         50               0                50               0                
0.32                           0.004976009789833 36.2135726794063 0.995915457734724 -0.810715425846445 0.995915457734695 -0.810715425845343 0.00497593586216737 36.1989994456022 
! Gamma         0.464987388349172 13.3021179130687 0.465119248131684 13.3022559530478 
! Port Impedance         50               0                50               0                
0.36                           0.00523771632165368 38.950269739294  0.9958431758429  -0.912244938382915 0.995843175842876 -0.912244938381611 0.00523746563265888 38.9371395756691 
! Gamma         0.501435438804164 14.930828544299  0.501578451628425 14.9309702062744 
! Port Impedance         50               0                50               0                
0.4                            0.00551531695207555 41.4245535573004 0.995759408252005 -1.01366671992568 0.995759408251986 -1.01366671992427 0.00551491069072705 41.4131874644724 
! Gamma         0.536573943022514 16.5576416984271 0.536726763670599 16.5577864739532 
! Port Impedance         50               0                50               0                
0.44                           0.0058089403806161 43.6506853618853 0.99566548506956 -1.11493583346377 0.995665485069547 -1.11493583346233 0.00580841171436939 43.6412274174202 
! Gamma         0.570730181723101 18.1827795051351 0.570891763493576 18.1829271541389 
! Port Impedance         50               0                50               0                
0.48                           0.00611824062167298 45.6409670003075 0.995562500168514 -1.21604475981022 0.995562500168504 -1.21604475980881 0.00611762752297297 45.6333993536082 
! Gamma         0.604120909984493 19.8063809035596 0.604290461468747 19.8065313168179 
! Port Impedance         50               0                50               0                
0.52                           0.00644252677917413 47.4081491175348 0.995451241341245 -1.31700690832172 0.99545124134124 -1.3170069083204 0.00644186657587277 47.4023351641791 
! Gamma         0.636885769332569 21.4285471590544 0.637062696651896 21.4287002778172 
! Port Impedance         50               0                50               0                
0.56                           0.00678089827820815 48.9660417854846 0.995332199758844 -1.41784607678631 0.995332199758841 -1.4178460767851 0.00678022427346517 48.9617732579704 
! Gamma         0.669114224071702 23.0493635690145 0.669298076881289 23.0495193426789 
! Port Impedance         50               0                50               0                
0.6                            0.00713235611453026 50.3293037980594 0.995205607517335 -1.51858983174912 0.995205607517335 -1.51858983174804 0.00713169590197874 50.3263402658419 
! Gamma         0.700864717218242 24.6689087347951 0.701055144811542 24.6690671018918 
! Port Impedance         50               0                50               0                
0.64                           0.00749588403411953 51.5129463795546 0.995071481903533 -1.61926540873519 0.995071481903535 -1.61926540873425 0.007495258987018 51.5110437996155 
! Gamma         0.732177339839123 26.2872577780905 0.732374058207815 26.287418660519  
! Port Impedance         50               0                50               0                
0.68                           0.00787050237000587 52.5318177875487 0.99492966774937 -1.71989722236263 0.994929667749374 -1.71989722236184 0.00786992785119695 52.5307467912565 
! Gamma         0.76308176775034 27.9044828836304 0.763284536251   27.9046461877405 
! Port Impedance         50               0                50               0                
0.72                           0.00825529998033941 53.4001816835557 0.99477987476125 -1.82050540150738 0.994779874761255 -1.82050540150672 0.0082547859417696 53.3997377760559 
! Gamma         0.793601988657643 29.5206528671666 0.793810594286543 29.5208184878275 
! Port Impedance         50               0                50               0                
0.76                           0.00864944991077584 54.1314207619179 0.994621709123143 -1.92110497177507 0.994621709123147 -1.92110497177454 0.0086490016644389 54.1314287914817 
! Gamma         0.823758962859799 31.1358325611156 0.823973210174055 31.136000386594  
! Port Impedance         50               0                50               0                
0.8                            0.00905221361741445 54.737858439399  0.99445469970856 -2.02170543956221 0.994454699708563 -2.02170543956179 0.00905183264568928 54.7381733340616 
! Gamma         0.853572013420859 32.7500823409262 0.853791718443057 32.7502522574386 
! Port Impedance         50               0                50               0                
0.84                           0.00946293754285746 55.2306764472752 0.99427831964487 -2.12231061745634 0.994278319644874 -2.12231061745603 0.00946262227518672 55.2311817167251 
! Gamma         0.883059472940252 34.3634578849495 0.883284459745258 34.3636297803918 
! Port Impedance         50               0                50               0                
0.88                           0.00988104484570486 55.6199033476297 0.994092004088954 -2.22291858704698 0.994092004088958 -2.22291858704675 0.00988079136602321 55.6205083877786 
! Gamma         0.912238921957901 35.976010157263  0.912469020977743 35.9761839239774 
! Port Impedance         50               0                50               0                
0.92                           0.0103060242580321 55.9144516293173 0.993895165053744 -2.32352173290563 0.993895165053747 -2.32352173290547 0.0103058269295721 55.9150885042423 
! Gamma         0.941127223426359 37.5877855645115 0.941362270789661 37.5879611011428 
! Port Impedance         50               0                50               0                
0.96                           0.010737417408629 56.1221855335203 0.993687204046859 -2.42410680701515 0.993687204046863 -2.42410680701505 0.0107372694149368 56.122805648104  
! Gamma         0.969740472200924 39.198826230725  0.969980309642127 39.1990034433012 
! Port Impedance         50               0                50               0                
1                              0.0111748054849774 56.2500063530851 0.993467523183768 -2.52465500038031 0.993467523183769 -2.52465500038026 0.0111746992919695 56.2505772524903 
! Gamma         0.998093924454889 40.8091703404709 0.998338399490756 40.8093491428748 
! Port Impedance         50               0                50               0                
1.04                           0.0116177957828974 56.3039459095015 0.993235535336763 -2.62514201061263 0.993235535336764 -2.62514201061261 0.0116177235291195 56.3044483275947 
! Gamma         1.02620193898834 42.4188525115739 1.02645090517529 42.4190328255621 
! Port Impedance         50               0                50               0                
1.08                           0.0120660084774999 56.2892620288193 0.992990673785833 -2.72553810273412 0.992990673785833 -2.72553810273412 0.012065962300088 56.2896872375901 
! Gamma         1.05407794319494 44.0279041697102 1.05433126036064 44.0280859246204 
! Port Impedance         50               0                50               0                
1.12                           0.0125190638145377 56.2105321499127 0.99273240175067 -2.82580816649476 0.992732401750669 -2.82580816649477 0.0125190361177178 56.2108796213146 
! Gamma         1.08173442592144 45.6363539066899 1.0819919603172  45.6365370389473 
! Port Impedance         50               0                50               0                
1.16                           0.0129765698451693 56.0717428358316 0.9924602221041  -2.92591177795198 0.992460222104099 -2.925911777952  0.0129765535170721 56.0720182057011 
! Gamma         1.10918295422554 47.2442278116647 1.1094445785795  47.2444122641777 
! Port Impedance         50               0                50               0                
1.2                            0.0134381107925221 55.8763740697144 0.992173687494177 -3.02580327645411 0.992173687494175 -3.02580327645413 0.0134380993750041 55.8765873830246 
! Gamma         1.13643420891855 48.8515497699295 1.13669980238993 48.8517354914361 
! Port Impedance         50               0                50               0                
1.24                           0.0139032361328558 55.6274779346486 0.991872411032325 -3.12543187083251 0.991872411032324 -3.12543187083252 0.0139032239480341 55.6276421480091 
! Gamma         1.16349803338593 50.4583417277193 1.16376748143164 50.4585286721334 
! Port Impedance         50               0                50               0                
1.28                           0.0143714504882609 55.3277517116358 0.991556077635481 -3.22474179072366 0.991556077635479 -3.22474179072366 0.0143714327247382 55.3278814290981 
! Gamma         1.19038349066066 52.0646239238274 1.19065668483049 52.064812049612  
! Port Impedance         50               0                50               0                
1.32                           0.0148422044549449 54.9796056642383 0.991224456038574 -3.32367250057734 0.99122445603857 -3.32367250057731 0.0148421772162334 54.9797160845314 
! Gamma         1.21709892457747 53.67041509031   1.21737576225552 53.6706043598977 
! Port Impedance         50               0                50               0                
1.36                           0.0153148865257433 54.5852258750506 0.99087741141772 -3.42215899503567 0.990877411417716 -3.42215899503562 0.0153148468432016 54.5853319309345 
! Gamma         1.24365202177856 55.2757326252916 1.24393240588772 55.2759230045614 
! Port Impedance         50               0                50               0                
1.4                            0.0157888163030977 54.1466325011187 0.990514918482948 -3.52013219488917 0.990514918482945 -3.52013219488911 0.0157887621157552 54.1467481742508 
! Gamma         1.27004987222346 56.8805927411701 1.27033371090784 56.8807841989853 
! Port Impedance         50               0                50               0                
1.44                           0.0162632392349811 53.6657337557101 0.990137074811472 -3.61751946256935 0.990137074811468 -3.61751946256928 0.0162631693389397 53.6658715524483 
! Gamma         1.29629902661307 58.4850105915027 1.29658623291063 58.4852030993071 
! Port Impedance         50               0                50               0                
1.48                           0.0167373231370634 53.1443758237991 0.989744114099573 -3.7142452549199 0.98974411409957 -3.71424525491982 0.0167372371076639 53.1445463989508 
! Gamma         1.32240554974822 60.0890003796535 1.32269604126376 60.0891939111254 
! Port Impedance         50               0                50               0                
1.52                           0.0172101567852879 52.5843887961755 0.98933641891504 -3.81023192857218 0.989336418915038 -3.81023192857209 0.0172100548758717 52.5846007125349 
! Gamma         1.34837506931332 61.6925754519942 1.348668767899   61.6927699827517 
! Port Impedance         50               0                50               0                
1.56                           0.0176807508696317 51.9876285743087 0.988914532437041 -3.9054007094097 0.988914532437038 -3.9054007094096 0.0176806338914708 51.9878881859793 
! Gamma         1.3742128199204  63.2957483781138 1.37450965136952 63.2959438854657 
! Port Impedance         50               0                50               0                
1.6                            0.0181480415876349 51.3560145665482 0.988479168581876 -3.99967283214844 0.988479168581874 -3.99967283214833 0.0181479107763217 51.3563260137036 
! Gamma         1.39992368249099 64.8985310201557 1.40022357624849 64.8987274828939 
! Port Impedance         50               0                50               0                
1.64                           0.0186108971212752 50.6915628755265 0.988031219839103 -4.09297084886766 0.988031219839102 -4.09297084886755 0.0186107539955357 50.6919281773384 
! Gamma         1.42551221921256 66.5009345930824 1.42581510810452 66.5011319913074 
! Port Impedance         50               0                50               0                
1.68                           0.0190681271797624 49.9964145760398 0.987571762092007 -4.18522009639978 0.987571762092006 -4.18522009639968 0.0190679733991382 49.9968338074087 
! Gamma         1.45098270440253 68.1029697173747 1.45128852438575 68.1031680323521 
! Port Impedance         50               0                50               0                
1.72                           0.0195184957020198 49.2728586114645 0.987102055679764 -4.27635030199636 0.987102055679765 -4.27635030199627 0.019518332930098 49.2733301478295 
! Gamma         1.47633915166257 69.7046464654188 1.47664784159446 69.7048456794588 
! Port Impedance         50               0                50               0                
1.76                           0.0199607366963381 48.5233488029505 0.98662354198619 -4.36629729500621 0.98662354198619 -4.36629729500614 0.0199605664760893 48.5238696163478 
! Gamma         1.50158533772197 71.3059744026115 1.50189683915032 71.3061744989694 
! Port Impedance         50               0                50               0                
1.8                            0.0203935730538461 47.7505144767264 0.986137834921105 -4.45500478004539 0.986137834921104 -4.45500478004533 0.0203933967011392 47.7510804652372 
! Gamma         1.52672482336227 72.906962624027  1.52703908033399 72.9071635868199 
! Port Impedance         50               0                50               0                
1.84                           0.0208157380130628 46.9571642757047 0.985646706801891 -4.54242611516439 0.985646706801892 -4.54242611516434 0.0208155565334817 46.9577706080814 
! Gamma         1.55176097179393 74.5076197873341 1.55207793068164 74.5078216014713 
! Port Impedance         50               0                50               0                
1.88                           0.021225998784028 46.1462828348595 0.985152068347117 -4.6285260278926 0.985152068347117 -4.62852602789258 0.0212258128167695 46.1469242922933 
! Gamma         1.57669696482569 76.1079541425221 1.57701657417086 76.1081567936459 
! Port Impedance         50               0                50               0                
1.92                           0.021623181674374 45.3210201639803 0.984655942757917 -4.71328219397542 0.984655942757918 -4.71328219397542 0.0216229914653233 45.32169146194   
! Gamma         1.60153581713305 77.7079735588899 1.60185802750421 77.7081770333247 
! Port Impedance         50               0                50               0                
1.96                           0.0220061979104203 44.4846737905083 0.984160434175604 -4.79668659934666 0.984160434175605 -4.79668659934668 0.0220060033145411 44.4853698654633 
! Gamma         1.62628038889633 79.3076855496668 1.62660515276092 79.3078898343755 
! Port Impedance         50               0                50               0                
2                              0.0223740692287895 43.6406639591648 0.983667691147578 -4.87874660650225 0.983667691147578 -4.87874660650229 0.0223738697399513 43.6413802076082 
! Gamma         1.65093339704413 80.907097294566  1.65126066865264 80.9073023771113 
! Port Impedance         50               0                50               0                
2.04                           0.0227259522423818 42.7925024488065 0.983179866083137 -4.9594856527575 0.983179866083137 -4.95948565275756 0.0227257470468008 42.7932349093874 
! Gamma         1.67549742530504 82.5062156605179 1.67582716058615 82.5064215290277 
! Port Impedance         50               0                50               0                
2.08                           0.0230611605701366 41.9437558324794 0.982699072005883 -5.03894352019835 0.982699072005883 -5.03894352019841 0.0230609486179426 41.9445013060001 
! Gamma         1.6999749332407  84.1050472207846 1.70030708970602 84.1052538639211 
! Port Impedance         50               0                50               0                
2.12                           0.0233791837698329 41.0980042535995 0.982227338177805 -5.11717613518791 0.982227338177805 -5.11717613518799 0.0233789638580675 41.0987603598266 
! Gamma         1.7243682644063  85.7035982726266 1.72470280106377 85.7038056795571 
! Port Impedance         50               0                50               0                
2.16                           0.0236797022281995 40.2587969995643 0.981766566351117 -5.1942548781002 0.981766566351116 -5.19425487810028 0.0236794730879342 40.2595621739792 
! Gamma         1.74867965376134 87.3018748536614 1.74901653103617 87.3020830140319 
! Port Impedance         50               0                50               0                
2.2                            0.0239625973374321 39.4296063055661 0.98131848947322 -5.27026540992094 0.981318489473221 -5.27026540992102 0.0239623577177414 39.4303797430346 
! Gamma         1.77291123443323 88.8998827570361 1.77325041409545 88.9000916609464 
! Port Impedance         50               0                50               0                
2.24                           0.0242279565098255 38.6137809026407 0.980884634612983 -5.34530604938106 0.980884634612983 -5.34530604938114 0.0242277052520444 38.6145624581543 
! Gamma         1.7970650439188  90.4976275455174 1.79740648901668 90.4978371834971 
! Port Impedance         50               0                50               0                
2.28                           0.0244760728356466 37.8145008268267 0.980466291691545 -5.41948576000214 0.980466291691543 -5.41948576000222 0.0244758089326445 37.8152908857082 
! Gamma         1.82114302979456 92.0951145645886 1.82148670459308 92.0953249275746 
! Port Impedance         50               0                50               0                
2.32                           0.0247074394531557 37.0347349302343 0.980064489300033 -5.49292182849512 0.980064489300033 -5.49292182849518 0.0247071620900682 37.0355342613598 
! Gamma         1.84514705499405 93.6923489546341 1.84549292491792 93.6925600339493 
! Port Impedance         50               0                50               0                
2.36                           0.024922738952533 36.2772023858124 0.979679978494982 -5.56573733235751 0.979679978494982 -5.56573733235758 0.02492244752736 36.2780119914244 
! Gamma         1.86907890270088 95.2893356622823 1.86942693428146 95.2895474496147 
! Port Impedance         50               0                50               0                
2.4                            0.025122828357828 35.5443392683216 0.979313225014611 -5.63805850385286 0.97931322501461 -5.63805850385291 0.0251225224822875 35.5451602428551 
! Gamma         1.89294028089755 96.8860794509707 1.89329044172329 96.8862919383534 
! Port Impedance         50               0                50               0                
2.44                           0.0253087204072611 34.8382710412413 0.978964409895705 -5.71001209919555 0.978964409895703 -5.71001209919559 0.0253083998900775 34.8391044495388 
! Gamma         1.91673282660375 98.4825849107913 1.91708508527373 98.4827980905842 
! Port Impedance         50               0                50               0                
2.48                           0.0254815619718708 34.1607915032225 0.978633438031369 -5.78172287590345 0.978633438031367 -5.78172287590349 0.0254812267880992 34.161638285721  
! Gamma         1.94045810983219 100.078856467671 1.94081243591237 100.079070332542 
! Port Impedance         50               0                50               0                
2.52                           0.0256426105117923 33.5133484677792 0.978319953830186 -5.8533112688775 0.978319953830185 -5.85331126887753 0.0256422607627296 33.5142093770268 
! Gamma         1.96411763728578 101.674898391933 1.96447400126776 101.675112934841 
! Port Impedance         50               0                50               0                
2.56                           0.0257932094701132 32.8970361848726 0.978023362843384 -5.92489133837002 0.978023362843383 -5.92489133837004 0.0257928453387344 32.8979117544705 
! Gamma         1.98771285581661 103.270714806291 1.98807122907857 103.270930020468 
! Port Impedance         50               0                50               0                
2.6                            0.0259347634534614 32.3125942775072 0.977742858034233 -5.99656904250755 0.977742858034232 -5.99656904250756 0.0259343851601772 32.3134848214771 
! Gamma         2.01124515566427 104.866309693307 2.01160551043399 104.866525572245 
! Port Impedance         50               0                50               0                
2.64                           0.0260687139567751 31.7604127710355 0.977477449276724 -6.06844086541917 0.977477449276722 -6.06844086541917 0.0260683217197258 31.761318409014  
! Gamma         2.03471587348907 106.461686902365 2.03507818280874 106.4619034398   
! Port Impedance         50               0                50               0                
2.68                           0.0261965162697368 31.2405426431938 0.977225994682004 -6.14059281111682 0.977225994682004 -6.14059281111682 0.0261961102728615 31.2414633449673 
! Gamma         2.0581262952139  108.056850156189 2.05849053290666 108.057067346085 
! Port Impedance         50               0                50               0                
2.72                           0.0263196180669986 30.7527112200827 0.976987232446441 -6.21309975457465 0.97698723244644 -6.21309975457464 0.0263191984379681 30.7536468618118 
! Gamma         2.08147765868708 109.651803056941 2.08184379932514 109.652020893479 
! Port Impedance         50               0                50               0                
2.76                           0.0264394400453715 30.2963416848294 0.976759812074207 -6.28602512601246 0.976759812074207 -6.28602512601245 0.0264390068442097 30.297292109062  
! Gamma         2.10477115617766 111.246549091928 2.10513917505191 111.246767569492 
! Port Impedance         50               0                50               0                
2.8                            0.0265573588385421 29.8705759459168 0.976542324028371 -6.35942089278627 0.976542324028371 -6.35942089278626 0.026556912056577 29.8715410179331 
! Gamma         2.12800793671357 112.841091638954 2.12837780980452 112.84131075212  
! Port Impedance         50               0                50               0                
2.84                           0.0266746923207809 29.4743001241373 0.976333327085512 -6.4333277956675 0.976333327085511 -6.43332779566751 0.0266742318885227 29.475279778352  
! Gamma         2.15118910827229 114.435433971334 2.15156081222241 114.43565371486  
! Port Impedance         50               0                50               0                
2.88                           0.0267926873103221 29.1061719528648 0.976131372891543 -6.50777579243219 0.976131372891542 -6.50777579243217 0.0267922131120997 29.1071662245938 
! Gamma         2.17431573983342 116.02957926261  2.17468925192067 116.029799631423 
! Port Impedance         50               0                50               0                
2.92                           0.0269125096026675 28.7646494383602 0.975935027425153 -6.58278466110461 0.975935027425153 -6.5827846611046 0.0269120214953395 28.7656584782754 
! Gamma         2.19738886330164 117.623530590972 2.19776416141422 117.62375158016  
! Port Impedance         50               0                50               0                
2.96                           0.0270352362043136 28.448020188289  0.975742889259812 -6.65836471727434 0.975742889259812 -6.65836471727434 0.0270347340371765 28.4490442588933 
! Gamma         2.22040947530839 119.217290943427 2.22078653792063 119.217512548231 
! Port Impedance         50               0                50               0                
3                              0.0271618495967097 28.1544308821164 0.975553604668927 -6.73451760394315 0.975553604668927 -6.73451760394315 0.0271613332298459 28.1554703375495 
! Gamma         2.2433785389     120.810863219714 2.24375734504934 120.811085435519 
! Port Impedance         50               0                50               0                
3.04                           0.0272932338364396 27.8819164223643 0.975365879739113 -6.8112371176886 0.975365879739113 -6.81123711768859 0.0272927031550789 27.8829716745762 
! Gamma         2.26629698511987 122.404250236011 2.26667751438492 122.404473058337 
! Port Impedance         50               0                50               0                
3.08                           0.0274301722874997 27.6284283681963 0.975178489743835 -6.88851004095773 0.975178489743836 -6.88851004095774 0.0274296272105663 27.629499843803  
! Gamma         2.28916571449165 123.997454728413 2.28954794697123 123.997678152912 
! Port Impedance         50               0                50               0                
3.12                           0.0275733467821018 27.391862310942  0.974990286086466 -6.96631695653021 0.974990286086466 -6.9663169565302 0.0275727872637992 27.392950403952  
! Gamma         2.31198559841028 125.590479356242 2.31236951470351 125.590703378686 
! Port Impedance         50               0                50               0                
3.16                           0.027723338014696 27.1700839043032 0.974800201152026 -7.04463302623458 0.974800201152026 -7.04463302623458 0.0277227640387907 27.1711889301823 
! Gamma         2.33475748044729 127.183326705155 2.33514306163462 127.183551321436 
! Port Impedance         50               0                50               0                
3.2                            0.0278806269870801 26.9609533104818 0.974607251414819 -7.12342872159503 0.974607251414819 -7.12342872159503 0.0278800385543439 26.9620754667773 
! Gamma         2.35748217757651 128.775999290108 2.3578694052016  128.776224496229 
! Port Impedance         50               0                50               0                
3.24                           0.0280455973384834 26.7623478676628 0.974410539139699 -7.20267049905371 0.974410539139699 -7.20267049905371 0.0280449944485138 26.7634872056873 
! Gamma         2.38016048132588 130.368499558152 2.38054933737846 130.368725350223 
! Port Impedance         50               0                50               0                
3.28                           0.0282185384115169 26.5721828251041 0.974209252992031 -7.28232141666844 0.974209252992032 -7.28232141666844 0.0282179210408144 26.5733392360174 
! Gamma         2.4027931588609  131.960829891093 2.40318362576046 131.961056265325 
! Port Impedance         50               0                50               0                
3.32                           0.0283996489215863 26.3884300303056 0.974002667839383 -7.36234169269604 0.974002667839383 -7.36234169269603 0.0283990170002593 26.3896032474334 