! Touchstone file exported from HFSS 2022.2.0
!        File:           C:/Users/dkcdn/Downloads/ViaModelMaterials/SimulationModel/HFSS/single_via_freq_dep_12mil_2port.aedt
!        Generated:      5:49:05 PM  Oct 23, 2024
!        Design:         HFSSDesign1
!        Project:        single_via_freq_dep_12mil_2port
!        Setup:          Setup1
!        Solution:       Sweep
!
! Variables:
!        apad = 4mil
!        bantipad = 15mil
!        dk = 3.5
!        hudie = 15.3mil
!        rvia = 4mil
!        tgnd = 1.3mil
!
# GHz S MA R 50.000000
! Terminal data exported
! Port[1] = via_T2
! Port[2] = via_T1
0.04                           0.00376908861646268 11.1336501348453 0.996286715942572 -0.0896448965530192 0.996286715942572 -0.0896448965530192 0.00376908832662343 11.1337040569897 
! Gamma         0.0562484981236622 1.6825413314758  0.0562443699710713 1.68254404236973 
! Port Impedance         50               0                50               0                
0.08                           0.00398902556860531 20.6575761449277 0.996238768837501 -0.175705366127662 0.9962387688375  -0.175705366127662 0.00398902456353379 20.657688343447  
! Gamma         0.089302495567544 3.32695779257484 0.0892957590328867 3.32696731046237 
! Port Impedance         50               0                50               0                
0.12                           0.00430818221886275 28.9841403902393 0.996178586127468 -0.261759793253877 0.996178586127467 -0.261759793253869 0.00430808969961793 28.984227322794  
! Gamma         0.116274619307535 4.96286206457159 0.116266476255671 4.96287893891584 
! Port Impedance         50               0                50               0                
0.16                           0.00470744472767424 35.9877626994268 0.996112959427201 -0.34700639933123 0.996112959427201 -0.347006399331207 0.00470729892331611 35.9889906356199 
! Gamma         0.142388409422832 6.59458575669789 0.142379381674954 6.59461015885936 
! Port Impedance         50               0                50               0                
0.2                            0.00516720725746278 41.7949887194206 0.996057623045513 -0.431793821438556 0.996057623045513 -0.431793821438521 0.00516710142246464 41.7969165264548 
! Gamma         0.169243934797691 8.2214646747852  0.169234438292246 8.22149679389572 
! Port Impedance         50               0                50               0                
0.24                           0.0056750242960496 46.5798410884147 0.996005619265577 -0.516638057057382 0.996005619265577 -0.516638057057341 0.00567497663404135 46.5818678550458 
! Gamma         0.195571484736278 9.84423367317537 0.195561923262917 9.84427354821043 
! Port Impedance         50               0                50               0                
0.28                           0.00622056309597484 50.5177244267472 0.995951534833048 -0.601670039458147 0.995951534833048 -0.601670039458103 0.00622056198255717 50.5195516386647 
! Gamma         0.220913818037499 11.4638857116686 0.22090452188333 11.463933284692  
! Port Impedance         50               0                50               0                
0.32                           0.00679582409871742 53.7660674796624 0.995892129516479 -0.686882134771289 0.995892129516479 -0.686882134771245 0.00679585082066298 53.7676172588104 
! Gamma         0.245250365794473 13.0812272090972 0.245241587803432 13.0812823795861 
! Port Impedance         50               0                50               0                
0.36                           0.00739478242172437 56.4563132405161 0.995825670712916 -0.772230945779606 0.995825670712916 -0.772230945779565 0.0073948200105613 56.4576170068289 
! Gamma         0.26873744989088 14.6968141192817 0.268729382323683 14.6968767762148 
! Port Impedance         50               0                50               0                
0.4                            0.00801292185632281 58.694276393858  0.995751290824358 -0.857673164304105 0.995751290824359 -0.85767316430407 0.00801295773594694 58.6954048757495 
! Gamma         0.291570270380527 16.3110008258853 0.291563063627586 16.311070861979  
! Port Impedance         50               0                50               0                
0.44                           0.00864683936237419 60.5637793675653 0.995668571843229 -0.943175134228994 0.99566857184323 -0.943175134228965 0.00864686545697907 60.5648072053889 
! Gamma         0.313923446109289 17.9240050100262 0.313917223107812 17.9240823260515 
! Port Impedance         50               0                50               0                
0.48                           0.00929394680327564 62.1308888817272 0.99557730828032 -1.02871335179096 0.995577308280321 -1.02871335179094 0.00929395873898028 62.1318798504876 
! Gamma         0.335932645236472 19.5359598379723 0.335927511046498 19.5360443426436 
! Port Impedance         50               0                50               0                
0.52                           0.0099522541963012 63.4477257177964 0.995477379068307 -1.11427241427208 0.995477379068308 -1.11427241427207 0.00995225031301514 63.4487285942063 
! Gamma         0.357694607340907 21.1469495933968 0.357690654998252 21.1470412017635 
! Port Impedance         50               0                50               0                
0.56                           0.0106202133722271 64.5555793370685 0.995368680633747 -1.1998426480351 0.995368680633749 -1.19984264803509 0.0106201938341915 64.5566285892554 
! Gamma         0.37927386929678 22.7570319896455 0.379271183194915 22.7571306213103 
! Port Impedance         50               0                50               0                
0.6                            0.011296604681314 65.4873492054765 0.995251093184602 -1.2854180648058 0.995251093184603 -1.28541806480579 0.0112965707749963 65.4884674481145 
! Gamma         0.400710831515639 24.3662512988217 0.400709489280359 24.3663568764813 
! Port Impedance         50               0                50               0                
0.64                           0.0119804540580861 66.269422521535  0.995124464801951 -1.3709947534011 0.995124464801952 -1.3709947534011 0.0119804076783888 66.2706232800108 
! Gamma         0.422029010993129 25.9746456185623 0.422029084496597 25.974758066981  
! Port Impedance         50               0                50               0                
0.68                           0.0126709715114612 66.923108011487  0.994988605013857 -1.45656965183562 0.994988605013858 -1.45656965183562 0.0126709148046371 66.9243981912489 
! Gamma         0.443240824787471 27.5822505818721 0.443242380704179 27.5823698272471 
! Port Impedance         50               0                50               0                
0.72                           0.0133675048065647 67.4657297618539 0.994843283382114 -1.54213961247118 0.994843283382115 -1.54213961247119 0.0133674399314666 67.4671116396452 
! Gamma         0.464351886595845 29.1891010045551 0.464354986737556 29.1892269741831 
! Port Impedance         50               0                50               0                
0.76                           0.0140695039795973 67.9114640040604 0.994688230707798 -1.62770068036318 0.994688230707799 -1.6277006803632 0.0140694329528868 67.9129367454133 
! Gamma         0.485364033686784 30.7952314002597 0.485368735248248 30.7953640224117 
! Port Impedance         50               0                50               0                
0.8                            0.0147764936184707 68.271982433978  0.994523141587033 -1.71324752128947 0.994523141587033 -1.71324752128949 0.0147764182167938 68.2735432111767 
! Gamma         0.506277356367937 32.4006759235766 0.506283712151008 32.4008151275057 
! Port Impedance         50               0                50               0                
0.84                           0.0154880507333504 68.5569499267325 0.994347677668742 -1.79877295157761 0.994347677668743 -1.79877295157762 0.0154879724329272 68.5585947261388 
! Gamma         0.527091484008412 34.0054680676465 0.527099542654662 34.0056137836673 
! Port Impedance         50               0                50               0                
0.88                           0.0162037866610533 68.7744123860374 0.994161471315443 -1.88426753455328 0.994161471315444 -1.88426753455329 0.0162037066013862 68.7761365853988 
! Gamma         0.54780633901516 35.6096402979267 0.547816145256131 35.6097924575262 
! Port Impedance         50               0                50               0                
0.92                           0.0169233318826085 68.9311013627113 0.993964129569795 -1.96971921828321 0.993964129569794 -1.96971921828323 0.0169232508458057 68.9329001434361 
! Gamma         0.568422524133623 37.2132237160039 0.568434119057098 37.2133822519561 
! Port Impedance         50               0                50               0                
0.96                           0.0176463229430778 69.0326753236409 0.993755238448888 -2.05511299689926 0.993755238448888 -2.05511299689928 0.0176462413437527 69.0345439670391 
! Gamma         0.58894146725666 38.8162477954954 0.588954888582575 38.8164126419629 
! Port Impedance         50               0                50               0                
1                              0.0183723908869259 69.0839124685224 0.993534367660555 -2.14043058380978 0.993534367660555 -2.14043058380979 0.0183723087700278 69.0858465711739 
! Gamma         0.609365414070072 40.418740202553  0.609380696428338 40.4189112951661 
! Port Impedance         50               0                50               0                
1.04                           0.0191011507881846 69.0888663159263 0.99330107588031 -2.22565009005427 0.99330107588031 -2.22565009005427 0.0191010678336802 69.0908619486195 
! Gamma         0.629697332359483 42.0207266976411 0.629714507562437 42.0209039735524 
! Port Impedance         50               0                50               0                
1.08                           0.0198321920812352 69.0509925635151 0.993054916754336 -2.31074570534176 0.993054916754335 -2.31074570534176 0.0198321076155598 69.0530463898948 
! Gamma         0.649940771733733 43.6222311076551 0.649959869037254 43.6224145055684 
! Port Impedance         50               0                50               0                
1.12                           0.0205650694984915 68.9732537102485 0.992795445808418 -2.39568738323527 0.992795445808418 -2.39568738323527 0.0205649825132382 68.9753630754557 
! Gamma         0.670099707713629 45.2232753546436 0.670120754062486 45.2234648148201 
! Port Impedance         50               0                50               0                
1.16                           0.0212992945048343 68.8582064220554 0.992522228447117 -2.48044053572397 0.992522228447117 -2.48044053572396 0.0212992036834007 68.8603694174203 
! Gamma         0.690178388462091 46.8238795272837 0.690201408716646 46.8240749915281 
! Port Impedance         50               0                50               0                
1.2                            0.0220343271918988 68.7080754882128 0.992234849221928 -2.56496574621719 0.992234849221928 -2.56496574621718 0.0220342309448376 68.7102909950804 
! Gamma         0.710181194914435 48.4240619825172 0.710206212057137 48.4242633941488 
! Port Impedance         50               0                50               0                
1.24                           0.0227695686627556 68.5248173526658 0.991932922530398 -2.64921851388673 0.991932922530399 -2.64921851388671 0.0227694651724134 68.5270850665082 
! Gamma         0.7301125199057  50.0238394666216 0.730139555226915 50.0240467704314 
! Port Impedance         50               0                50               0                
1.28                           0.0235043540021143 68.3101755389282 0.991616104877955 -2.73314904629999 0.991616104877954 -2.73314904629997 0.0235042412768409 68.3124959735636 
! Gamma         0.749976668454406 51.6232272469924 0.75000574171793 51.623440389193  
! Port Impedance         50               0                50               0                
1.32                           0.0242379459905199 68.0657297645309 0.991284108787452 -2.81670212137075 0.991284108787452 -2.81670212137072 0.0242378219282911 68.06810423555   
! Gamma         0.769777779163369 53.2222392478331 0.76980890875258 53.2224581760017 
! Port Impedance         50               0                50               0                
1.36                           0.0249695297834773 67.7929401210935 0.990936718374942 -2.89981704366326 0.990936718374943 -2.89981704366323 0.0249693922442228 67.7953707072359 
! Gamma         0.78951976537227 54.8208881846399 0.789552968418273 54.8211128476585 
! Port Impedance         50               0                50               0                
1.4                            0.0256982088371342 67.4931873490326 0.990573806520531 -2.98242772377228 0.990573806520531 -2.98242772377225 0.0256980557223951 67.4956768303185 
! Gamma         0.809206273972467 56.4191856938074 0.809241566465803 56.4194160418018 
! Port Impedance         50               0                50               0                
1.44                           0.0264230024188599 67.1678099397904 0.990195353447983 -3.06446291250443 0.990195353447983 -3.06446291250439 0.0264228317566628 67.1703617115234 
! Gamma         0.828840659474296 58.0171424548524 0.828878056361896 58.0173784391317 
! Port Impedance         50               0                50               0                
1.48                           0.027142845090201 66.8181385372166 0.989801466384736 -3.14584662342206 0.989801466384736 -3.14584662342203 0.0271426551222304 66.8207564996536 
! Gamma         0.848425970859072 59.6147683036861 0.848465486128182 59.6150098766838 
! Port Impedance         50               0                50               0                
1.52                           0.0278565885862785 66.4455278725931 0.989392399806391 -3.22649877738396 0.989392399806391 -3.22649877738392 0.0278563778536153 66.4482162970343 
! Gamma         0.867964948852178 61.2120723360814 0.868006595602875 61.212319451299  
! Port Impedance         50               0                50               0                
1.56                           0.0285630065334179 66.0513862482729 0.988968575581257 -3.30633610034514 0.988968575581258 -3.30633610034511 0.0285627739563653 66.0541496215273 
! Gamma         0.887460031450557 62.8090630010216 0.887503821958432 62.8093156129759 
! Port Impedance         50               0                50               0                
1.6                            0.0292608024384052 65.6372023805677 0.988530602130158 -3.38527330014835 0.988530602130158 -3.38527330014832 0.0292605473853035 65.6400452312031 
! Gamma         0.906913365780986 64.4057481840153 0.906959311551409 64.4060062481888 
! Port Impedance         50               0                50               0                
1.64                           0.0299486213404086 65.204569224939  0.988079291518791 -3.46322453869494 0.988079291518792 -3.46322453869491 0.0299483436799575 65.2074959363885 
! Gamma         0.926326824623644 66.0021352807317 0.926374936438915 66.0023987535271 
! Port Impedance         50               0                50               0                
1.68                           0.0306250654328711 64.7552042410364 0.987615673224664 -3.54010520224642 0.987615673224664 -3.54010520224639 0.0306247655644482 64.7582188583187 
! Gamma         0.945702026189361 67.5982312615028 0.9457523141499  67.5985001002013 
! Port Impedance         50               0                50               0                
1.72                           0.0312887138316135 64.2909654202479 0.987141003193276 -3.61583395453544 0.987141003193276 -3.61583395453542 0.0312883926884922 64.2940714587242 
! Gamma         0.965040355976844 69.1940427273483 0.965092829537419 69.1943168900714 
! Port Impedance         50               0                50               0                
1.76                           0.031938146483956 63.8138623057527 0.986656766748128 -3.69033503521401 0.986656766748129 -3.69033503521399 0.0319378055052806 63.8170625717855 
! Gamma         0.98434298975189 70.7895759582431 0.984397657753769 70.7898554039184 
! Port Impedance         50               0                50               0                
1.8                            0.0325719719833338 63.3260611977641 0.986164673976161 -3.76354074094936 0.986164673976161 -3.76354074094934 0.0325716130522584 63.3293576321238 
! Gamma         1.00361091688146 72.3848369543688 1.00366778758124 72.3851216426986 
! Port Impedance         50               0                50               0                
1.84                           0.0331888587821143 62.8298837680721 0.985666646401034 -3.83539399996493 0.985666646401035 -3.83539399996492 0.0331884841296316 62.8332773233325 
! Gamma         1.02284496342106 73.9798314710826 1.0229040445168  73.9801213625162 
! Port Impedance         50               0                50               0                
1.88                           0.0337875689966199 62.327798419703  0.985164794098493 -3.90585092554061 0.985164794098493 -3.9058509255406 0.0337871810732231 62.3312889823799 
! Gamma         1.04204581449527 75.5745650483163 1.04210711315049 75.5748601040245 
! Port Impedance         50               0                50               0                
1.92                           0.0343669936946583 61.822403926572  0.984661382903274 -3.97488321307307 0.984661382903275 -3.97488321307306 0.0343665950149045 61.8259902933248 
! Gamma         1.06121403563029 77.1690430350719 1.0612775584962  77.1693432169247 
! Port Impedance         50               0                50               0                
1.96                           0.0349261882755781 61.3164051748287 0.984158791987457 -4.04248023218461 0.984158791987456 -4.04248023218461 0.0349257812436003 61.3200850895016 
! Gamma         1.08035009279598 78.7632706096429 1.08041584603245 78.7635758801888 
! Port Impedance         50               0                50               0                
2                              0.0354644063287848 60.8125811932987 0.983659462814286 -4.10865066329746 0.983659462814287 -4.10865066329746 0.0354639930554873 60.8163514480696 
! Gamma         1.09945437099633 80.3572527961308 1.09952236029174 80.3575631185788 
! Port Impedance         50               0                50               0                
2.04                           0.0359811302221823 60.3137460858843 0.983165841225103 -4.17342353951291 0.983165841225103 -4.17342353951291 0.0359807123468718 60.3176026854639 
! Gamma         1.1185271913125  81.9509944777804 1.11859742190275 81.951309815983  
! Port Impedance         50               0                50               0                
2.08                           0.0364760966564442 59.8227039343462 0.982680315118315 -4.23684858060623 0.982680315118315 -4.23684858060623 0.0364756751866965 59.8266423172488 
! Gamma         1.13756882635507 83.5445004076031 1.13764130304204 83.5448207260411 
! Port Impedance         50               0                50               0                
2.12                           0.036949315544478 59.3421991868833 0.982205150739637 -4.29899574565607 0.982205150739636 -4.29899574565607 0.0369488907277825 59.346214492928  
! Gamma         1.15657951412345 85.1377752167058 1.15665424129286 85.1381004804746 
! Port Impedance         50               0                50               0                
2.16                           0.0374010808439606 58.8748644427427 0.981742430939771 -4.35995398138706 0.981742430939771 -4.35995398138706 0.0374006520830588 58.8789518114569 
! Gamma         1.17555947030173 86.7308234206992 1.17563645194066 86.7311535954958 
! Port Impedance         50               0                50               0                
2.2                            0.0378319723735104 58.4231678414527 0.98129399880846 -4.41982919993734 0.98129399880846 -4.41982919993734 0.0378315381943483 58.427322722651  
! Gamma         1.1945088990444  88.323649424511  1.19458813875848 88.3239844766217 
! Port Impedance         50               0                50               0                
2.24                           0.0382428481513343 57.9893624288824 0.980861409836004 -4.47874157638321 0.980861409836003 -4.47874157638322 0.0382424062284917 57.9935808846619 
! Gamma         1.21342800232264 89.916257525891  1.21350950335297 89.9165974221803 
! Port Impedance         50               0                50               0                
2.28                           0.0386348273653009 57.5754398741288 0.980445895199726 -4.53682230646848 0.980445895199726 -4.53682230646848 0.0386343746049887 57.5797188513825 
! Gamma         1.23231698791389 91.5086519178567 1.23240075315369 91.5089966257566 
! Port Impedance         50               0                50               0                
2.32                           0.0390092646615663 57.1830907406452 0.980048337980163 -4.59421000276264 0.980048337980163 -4.59421000276265 0.0390087973373835 57.1874282948881 
! Gamma         1.25117607612541 93.1008366902948 1.25126210813648 93.1011861777942 
! Port Impedance         50               0                50               0                
2.36                           0.0393677169686743 56.8136731799052 0.979669263169408 -4.65104692870628 0.979669263169408 -4.65104692870628 0.0393672309008216 56.8180686347337 
! Gamma         1.2700055053467  94.6928158309024 1.27009380637562 94.693170066537  
! Port Impedance         50               0                50               0                
2.4                            0.0397119045042932 56.4681914427432 0.979308841350427 -4.70747527279976 0.979308841350426 -4.70747527279976 0.0397113952693855 56.4726454741601 
! Gamma         1.28880553652759 96.2845932256259 1.28889610852172 96.2849521784684 
! Port Impedance         50               0                50               0                
2.44                           0.0400436679037032 56.1472850339457 0.97896690501    -4.76363365019515 0.978966905009999 -4.76363365019516 0.0400431310600561 56.1517996746687 
! Gamma         1.30757645667817 97.8761726587305 1.30766930130139 97.8765362983809 
! Port Impedance         50               0                50               0                
2.48                           0.0403649235414462 55.8512287213513 0.97864297569193 -4.81965398908544 0.97864297569193 -4.81965398908544 0.04036435485397 55.8558072863304 
! Gamma         1.32631858148482 99.467557812612  1.32641370013298 99.4679261091877 
! Port Impedance         50               0                50               0                
2.52                           0.0406776190881823 55.5799430062152 0.97833629966467 -4.87565891910935 0.978336299664669 -4.87565891910935 0.0406770147377438 55.5845899464012 
! Gamma         1.34503225713326 101.058752267444 1.34512965094942 101.059125191571 
! Port Impedance         50               0                50               0                
2.56                           0.0409836911697604 55.3330141177847 0.978045889496756 -4.93175973382675 0.978045889496755 -4.93175973382675 0.0409830479339153 55.3377348140573 
! Gamma         1.36371786142559 102.649759500741 1.36381753131488 102.650137023542 
! Port Impedance         50               0                50               0                
2.6                            0.0412850267050128 55.1097221528994 0.977770568898131 -4.98805495437236 0.977770568898131 -4.98805495437236 0.041284342100015 55.1145226656269 
! Gamma         1.38237580427336 104.240582886888 1.38247775091755 104.240964979977 
! Port Impedance         50               0                50               0                
2.64                           0.0415834291315489 54.9090756683009 0.977509018360838 -5.04462948101966 0.977509018360837 -5.04462948101966 0.0415827015091138 54.9139624599959 
! Gamma         1.40100652764369 105.831225696708 1.40111075151539 105.831612332175 
! Port Impedance         50               0                50               0                
2.68                           0.0418805903262255 54.7298508609887 0.977259819466115 -5.10155428663633 0.977259819466114 -5.10155428663634 0.0418798189222212 54.7348305099735 
! Gamma         1.41961050503021 107.421691097082 1.41971700640668 107.422082247486 
! Port Impedance         50               0                50               0                
2.72                           0.042178068627441 54.5706334374604 0.977021496156191 -5.15888658248792 0.977021496156191 -5.15888658248793 0.0421772535631826 54.5757123593984 
! Gamma         1.43818824051506 109.011982150674 1.43829701949168 109.012377789034 
! Port Impedance         50               0                50               0                
2.76                           0.0424772730016291 54.429861360444  0.976792551739821 -5.2166703727967 0.97679255173982 -5.21667037279671 0.0424764152414032 54.4350455524501 
! Gamma         1.45674026748293 110.602101815768 1.45685132398618 110.602501915552 
! Port Impedance         50               0                50               0                
2.8                            0.0427794530887258 54.3058668476863 0.976571500861567 -5.27493730907587 0.976571500861566 -5.27493730907589 0.0427785543594597 54.311161666707  
! Gamma         1.47526714704283 112.192052946244 1.4753804808429  112.192457481358 
! Port Impedance         50               0                50               0                
2.84                           0.0430856946237193 54.1969162524102 0.976356896079539 -5.33370775702279 0.976356896079538 -5.3337077570228 0.0430847573042121 54.2023262361494 
! Gamma         1.49376946620816 113.7818382917   1.49388507693109 113.782247236476 
! Port Impedance         50               0                50               0                
2.88                           0.0433969195673925 54.1012467494253 0.976147349041927 -5.39299199582336 0.976147349041926 -5.39299199582337 0.0433959465552757 54.1067754845845 
! Gamma         1.51224783588087 115.371460497717 1.5123657230202  115.371873826908 
! Port Impedance         50               0                50               0                
2.92                           0.043713890185519 54.0170990569992 0.975941546519262 -5.4527914802228 0.975941546519261 -5.45279148022281 0.0437128847502052 54.0227490962972 
! Gamma         1.53070288868085 116.960922106295 1.53082305160888 116.961339795057 
! Port Impedance         50               0                50               0                
2.96                           0.0440372162834311 53.9427457194041 0.9757382617367  -5.51310010797055 0.975738261736699 -5.51310010797056 0.0440361819128416 53.948518546002  
! Gamma         1.54913527665738 118.550225556421 1.54925771463584 118.550647580309 
! Port Impedance         50               0                50               0                
3                              0.044367364820386 53.8765147412469 0.975536361566063 -5.57390544788489 0.975536361566063 -5.57390544788491 0.0443663050683933 53.8824107769136 
! Gamma         1.56754566891522 120.139373184808 1.56767038110558 120.139799519763 
! Port Impedance         50               0                50               0                
3.04                           0.044704671182782 53.8168085909489 0.975334810191974 -5.63518989579955 0.975334810191974 -5.63518989579956 0.044703589523216 53.8228272426202 
! Gamma         1.58593474918461 121.728367226768 1.5860617346578  121.728797849103 
! Port Impedance         50               0                50               0                
3.08                           0.0450493514747318 53.76211877126   0.975132669873453 -5.69693173639545 0.975132669873452 -5.69693173639546 0.0450482511665498 53.768258509651  
! Gamma         1.6043032133603  123.317209817221 1.60443247110602 123.317644703616 
! Port Impedance         50               0                50               0                
3.12                           0.045401515277716 53.7110362886506 0.974929099394575 -5.75910609803306 0.974929099394573 -5.75910609803308 0.0454003992447376 53.7172947520387 
! Gamma         1.62265176703219 124.905902991847 1.62278329596766 124.906342119334 
! Port Impedance         50               0                50               0                
3.16                           0.0457611784291162 53.662258443193  0.974723350747054 -5.82168579506506 0.974723350747053 -5.82168579506508 0.0457600491565452 53.6686325595222 
! Gamma         1.64098112302663 126.494448688346 1.64111492200495 126.494892034299 
! Port Impedance         50               0                50               0                
3.2                            0.0461282754653604 53.614592411385  0.974514764523678 -5.88464205777909 0.974514764523678 -5.88464205777911 0.046127134914296 53.6210785321735 
! Gamma         1.65929199897519 128.082848747824 1.65942806679312 128.083296289948 
! Port Impedance         50               0                50               0                
3.24                           0.0465026714644308 53.5669561125606 0.974302764431963 -5.94794515425312 0.974302764431963 -5.94794515425314 0.0465015210046958 53.5735501527189 
! Gamma         1.67758511492498 129.67110491627  1.67772345033032 129.671556632591 
! Port Impedance         50               0                50               0                
3.28                           0.0468841731015482 53.5183768420632 0.974086851268016 -6.01156491121758 0.974086851268015 -6.01156491121759 0.0468830134624626 53.5250744205039 
! Gamma         1.69586119100253 131.259218846137 1.69600179270099 131.259674714991 
! Port Impedance         50               0                50               0                
3.32                           0.0472725387994439 53.4679881279448 0.973866596625023 -6.07547114274794 0.973866596625022 -6.07547114274796 0.0472713700376346 53.4747847047333 